<?xml version="1.0"?>
<VTKFile type="UnstructuredGrid"  version="0.1"  >
<UnstructuredGrid>
<Piece  NumberOfPoints="4225" NumberOfCells="8192">
<Points>
<DataArray  type="Float64"  NumberOfComponents="3"  format="ascii">-1 -1 0  -0.96875 -1 0  -0.9375 -1 0  -0.90625 -1 0  -0.875 -1 0  -0.84375 -1 0  -0.8125 -1 0  -0.78125 -1 0  -0.75 -1 0  -0.71875 -1 0  -0.6875 -1 0  -0.65625 -1 0  -0.625 -1 0  -0.59375 -1 0  -0.5625 -1 0  -0.53125 -1 0  -0.5 -1 0  -0.46875 -1 0  -0.4375 -1 0  -0.40625 -1 0  -0.375 -1 0  -0.34375 -1 0  -0.3125 -1 0  -0.28125 -1 0  -0.25 -1 0  -0.21875 -1 0  -0.1875 -1 0  -0.15625 -1 0  -0.125 -1 0  -0.09375 -1 0  -0.0625 -1 0  -0.03125 -1 0  0 -1 0  0.03125 -1 0  0.0625 -1 0  0.09375 -1 0  0.125 -1 0  0.15625 -1 0  0.1875 -1 0  0.21875 -1 0  0.25 -1 0  0.28125 -1 0  0.3125 -1 0  0.34375 -1 0  0.375 -1 0  0.40625 -1 0  0.4375 -1 0  0.46875 -1 0  0.5 -1 0  0.53125 -1 0  0.5625 -1 0  0.59375 -1 0  0.625 -1 0  0.65625 -1 0  0.6875 -1 0  0.71875 -1 0  0.75 -1 0  0.78125 -1 0  0.8125 -1 0  0.84375 -1 0  0.875 -1 0  0.90625 -1 0  0.9375 -1 0  0.96875 -1 0  1 -1 0  -1 -0.96875 0  -0.96875 -0.96875 0  -0.9375 -0.96875 0  -0.90625 -0.96875 0  -0.875 -0.96875 0  -0.84375 -0.96875 0  -0.8125 -0.96875 0  -0.78125 -0.96875 0  -0.75 -0.96875 0  -0.71875 -0.96875 0  -0.6875 -0.96875 0  -0.65625 -0.96875 0  -0.625 -0.96875 0  -0.59375 -0.96875 0  -0.5625 -0.96875 0  -0.53125 -0.96875 0  -0.5 -0.96875 0  -0.46875 -0.96875 0  -0.4375 -0.96875 0  -0.40625 -0.96875 0  -0.375 -0.96875 0  -0.34375 -0.96875 0  -0.3125 -0.96875 0  -0.28125 -0.96875 0  -0.25 -0.96875 0  -0.21875 -0.96875 0  -0.1875 -0.96875 0  -0.15625 -0.96875 0  -0.125 -0.96875 0  -0.09375 -0.96875 0  -0.0625 -0.96875 0  -0.03125 -0.96875 0  0 -0.96875 0  0.03125 -0.96875 0  0.0625 -0.96875 0  0.09375 -0.96875 0  0.125 -0.96875 0  0.15625 -0.96875 0  0.1875 -0.96875 0  0.21875 -0.96875 0  0.25 -0.96875 0  0.28125 -0.96875 0  0.3125 -0.96875 0  0.34375 -0.96875 0  0.375 -0.96875 0  0.40625 -0.96875 0  0.4375 -0.96875 0  0.46875 -0.96875 0  0.5 -0.96875 0  0.53125 -0.96875 0  0.5625 -0.96875 0  0.59375 -0.96875 0  0.625 -0.96875 0  0.65625 -0.96875 0  0.6875 -0.96875 0  0.71875 -0.96875 0  0.75 -0.96875 0  0.78125 -0.96875 0  0.8125 -0.96875 0  0.84375 -0.96875 0  0.875 -0.96875 0  0.90625 -0.96875 0  0.9375 -0.96875 0  0.96875 -0.96875 0  1 -0.96875 0  -1 -0.9375 0  -0.96875 -0.9375 0  -0.9375 -0.9375 0  -0.90625 -0.9375 0  -0.875 -0.9375 0  -0.84375 -0.9375 0  -0.8125 -0.9375 0  -0.78125 -0.9375 0  -0.75 -0.9375 0  -0.71875 -0.9375 0  -0.6875 -0.9375 0  -0.65625 -0.9375 0  -0.625 -0.9375 0  -0.59375 -0.9375 0  -0.5625 -0.9375 0  -0.53125 -0.9375 0  -0.5 -0.9375 0  -0.46875 -0.9375 0  -0.4375 -0.9375 0  -0.40625 -0.9375 0  -0.375 -0.9375 0  -0.34375 -0.9375 0  -0.3125 -0.9375 0  -0.28125 -0.9375 0  -0.25 -0.9375 0  -0.21875 -0.9375 0  -0.1875 -0.9375 0  -0.15625 -0.9375 0  -0.125 -0.9375 0  -0.09375 -0.9375 0  -0.0625 -0.9375 0  -0.03125 -0.9375 0  0 -0.9375 0  0.03125 -0.9375 0  0.0625 -0.9375 0  0.09375 -0.9375 0  0.125 -0.9375 0  0.15625 -0.9375 0  0.1875 -0.9375 0  0.21875 -0.9375 0  0.25 -0.9375 0  0.28125 -0.9375 0  0.3125 -0.9375 0  0.34375 -0.9375 0  0.375 -0.9375 0  0.40625 -0.9375 0  0.4375 -0.9375 0  0.46875 -0.9375 0  0.5 -0.9375 0  0.53125 -0.9375 0  0.5625 -0.9375 0  0.59375 -0.9375 0  0.625 -0.9375 0  0.65625 -0.9375 0  0.6875 -0.9375 0  0.71875 -0.9375 0  0.75 -0.9375 0  0.78125 -0.9375 0  0.8125 -0.9375 0  0.84375 -0.9375 0  0.875 -0.9375 0  0.90625 -0.9375 0  0.9375 -0.9375 0  0.96875 -0.9375 0  1 -0.9375 0  -1 -0.90625 0  -0.96875 -0.90625 0  -0.9375 -0.90625 0  -0.90625 -0.90625 0  -0.875 -0.90625 0  -0.84375 -0.90625 0  -0.8125 -0.90625 0  -0.78125 -0.90625 0  -0.75 -0.90625 0  -0.71875 -0.90625 0  -0.6875 -0.90625 0  -0.65625 -0.90625 0  -0.625 -0.90625 0  -0.59375 -0.90625 0  -0.5625 -0.90625 0  -0.53125 -0.90625 0  -0.5 -0.90625 0  -0.46875 -0.90625 0  -0.4375 -0.90625 0  -0.40625 -0.90625 0  -0.375 -0.90625 0  -0.34375 -0.90625 0  -0.3125 -0.90625 0  -0.28125 -0.90625 0  -0.25 -0.90625 0  -0.21875 -0.90625 0  -0.1875 -0.90625 0  -0.15625 -0.90625 0  -0.125 -0.90625 0  -0.09375 -0.90625 0  -0.0625 -0.90625 0  -0.03125 -0.90625 0  0 -0.90625 0  0.03125 -0.90625 0  0.0625 -0.90625 0  0.09375 -0.90625 0  0.125 -0.90625 0  0.15625 -0.90625 0  0.1875 -0.90625 0  0.21875 -0.90625 0  0.25 -0.90625 0  0.28125 -0.90625 0  0.3125 -0.90625 0  0.34375 -0.90625 0  0.375 -0.90625 0  0.40625 -0.90625 0  0.4375 -0.90625 0  0.46875 -0.90625 0  0.5 -0.90625 0  0.53125 -0.90625 0  0.5625 -0.90625 0  0.59375 -0.90625 0  0.625 -0.90625 0  0.65625 -0.90625 0  0.6875 -0.90625 0  0.71875 -0.90625 0  0.75 -0.90625 0  0.78125 -0.90625 0  0.8125 -0.90625 0  0.84375 -0.90625 0  0.875 -0.90625 0  0.90625 -0.90625 0  0.9375 -0.90625 0  0.96875 -0.90625 0  1 -0.90625 0  -1 -0.875 0  -0.96875 -0.875 0  -0.9375 -0.875 0  -0.90625 -0.875 0  -0.875 -0.875 0  -0.84375 -0.875 0  -0.8125 -0.875 0  -0.78125 -0.875 0  -0.75 -0.875 0  -0.71875 -0.875 0  -0.6875 -0.875 0  -0.65625 -0.875 0  -0.625 -0.875 0  -0.59375 -0.875 0  -0.5625 -0.875 0  -0.53125 -0.875 0  -0.5 -0.875 0  -0.46875 -0.875 0  -0.4375 -0.875 0  -0.40625 -0.875 0  -0.375 -0.875 0  -0.34375 -0.875 0  -0.3125 -0.875 0  -0.28125 -0.875 0  -0.25 -0.875 0  -0.21875 -0.875 0  -0.1875 -0.875 0  -0.15625 -0.875 0  -0.125 -0.875 0  -0.09375 -0.875 0  -0.0625 -0.875 0  -0.03125 -0.875 0  0 -0.875 0  0.03125 -0.875 0  0.0625 -0.875 0  0.09375 -0.875 0  0.125 -0.875 0  0.15625 -0.875 0  0.1875 -0.875 0  0.21875 -0.875 0  0.25 -0.875 0  0.28125 -0.875 0  0.3125 -0.875 0  0.34375 -0.875 0  0.375 -0.875 0  0.40625 -0.875 0  0.4375 -0.875 0  0.46875 -0.875 0  0.5 -0.875 0  0.53125 -0.875 0  0.5625 -0.875 0  0.59375 -0.875 0  0.625 -0.875 0  0.65625 -0.875 0  0.6875 -0.875 0  0.71875 -0.875 0  0.75 -0.875 0  0.78125 -0.875 0  0.8125 -0.875 0  0.84375 -0.875 0  0.875 -0.875 0  0.90625 -0.875 0  0.9375 -0.875 0  0.96875 -0.875 0  1 -0.875 0  -1 -0.84375 0  -0.96875 -0.84375 0  -0.9375 -0.84375 0  -0.90625 -0.84375 0  -0.875 -0.84375 0  -0.84375 -0.84375 0  -0.8125 -0.84375 0  -0.78125 -0.84375 0  -0.75 -0.84375 0  -0.71875 -0.84375 0  -0.6875 -0.84375 0  -0.65625 -0.84375 0  -0.625 -0.84375 0  -0.59375 -0.84375 0  -0.5625 -0.84375 0  -0.53125 -0.84375 0  -0.5 -0.84375 0  -0.46875 -0.84375 0  -0.4375 -0.84375 0  -0.40625 -0.84375 0  -0.375 -0.84375 0  -0.34375 -0.84375 0  -0.3125 -0.84375 0  -0.28125 -0.84375 0  -0.25 -0.84375 0  -0.21875 -0.84375 0  -0.1875 -0.84375 0  -0.15625 -0.84375 0  -0.125 -0.84375 0  -0.09375 -0.84375 0  -0.0625 -0.84375 0  -0.03125 -0.84375 0  0 -0.84375 0  0.03125 -0.84375 0  0.0625 -0.84375 0  0.09375 -0.84375 0  0.125 -0.84375 0  0.15625 -0.84375 0  0.1875 -0.84375 0  0.21875 -0.84375 0  0.25 -0.84375 0  0.28125 -0.84375 0  0.3125 -0.84375 0  0.34375 -0.84375 0  0.375 -0.84375 0  0.40625 -0.84375 0  0.4375 -0.84375 0  0.46875 -0.84375 0  0.5 -0.84375 0  0.53125 -0.84375 0  0.5625 -0.84375 0  0.59375 -0.84375 0  0.625 -0.84375 0  0.65625 -0.84375 0  0.6875 -0.84375 0  0.71875 -0.84375 0  0.75 -0.84375 0  0.78125 -0.84375 0  0.8125 -0.84375 0  0.84375 -0.84375 0  0.875 -0.84375 0  0.90625 -0.84375 0  0.9375 -0.84375 0  0.96875 -0.84375 0  1 -0.84375 0  -1 -0.8125 0  -0.96875 -0.8125 0  -0.9375 -0.8125 0  -0.90625 -0.8125 0  -0.875 -0.8125 0  -0.84375 -0.8125 0  -0.8125 -0.8125 0  -0.78125 -0.8125 0  -0.75 -0.8125 0  -0.71875 -0.8125 0  -0.6875 -0.8125 0  -0.65625 -0.8125 0  -0.625 -0.8125 0  -0.59375 -0.8125 0  -0.5625 -0.8125 0  -0.53125 -0.8125 0  -0.5 -0.8125 0  -0.46875 -0.8125 0  -0.4375 -0.8125 0  -0.40625 -0.8125 0  -0.375 -0.8125 0  -0.34375 -0.8125 0  -0.3125 -0.8125 0  -0.28125 -0.8125 0  -0.25 -0.8125 0  -0.21875 -0.8125 0  -0.1875 -0.8125 0  -0.15625 -0.8125 0  -0.125 -0.8125 0  -0.09375 -0.8125 0  -0.0625 -0.8125 0  -0.03125 -0.8125 0  0 -0.8125 0  0.03125 -0.8125 0  0.0625 -0.8125 0  0.09375 -0.8125 0  0.125 -0.8125 0  0.15625 -0.8125 0  0.1875 -0.8125 0  0.21875 -0.8125 0  0.25 -0.8125 0  0.28125 -0.8125 0  0.3125 -0.8125 0  0.34375 -0.8125 0  0.375 -0.8125 0  0.40625 -0.8125 0  0.4375 -0.8125 0  0.46875 -0.8125 0  0.5 -0.8125 0  0.53125 -0.8125 0  0.5625 -0.8125 0  0.59375 -0.8125 0  0.625 -0.8125 0  0.65625 -0.8125 0  0.6875 -0.8125 0  0.71875 -0.8125 0  0.75 -0.8125 0  0.78125 -0.8125 0  0.8125 -0.8125 0  0.84375 -0.8125 0  0.875 -0.8125 0  0.90625 -0.8125 0  0.9375 -0.8125 0  0.96875 -0.8125 0  1 -0.8125 0  -1 -0.78125 0  -0.96875 -0.78125 0  -0.9375 -0.78125 0  -0.90625 -0.78125 0  -0.875 -0.78125 0  -0.84375 -0.78125 0  -0.8125 -0.78125 0  -0.78125 -0.78125 0  -0.75 -0.78125 0  -0.71875 -0.78125 0  -0.6875 -0.78125 0  -0.65625 -0.78125 0  -0.625 -0.78125 0  -0.59375 -0.78125 0  -0.5625 -0.78125 0  -0.53125 -0.78125 0  -0.5 -0.78125 0  -0.46875 -0.78125 0  -0.4375 -0.78125 0  -0.40625 -0.78125 0  -0.375 -0.78125 0  -0.34375 -0.78125 0  -0.3125 -0.78125 0  -0.28125 -0.78125 0  -0.25 -0.78125 0  -0.21875 -0.78125 0  -0.1875 -0.78125 0  -0.15625 -0.78125 0  -0.125 -0.78125 0  -0.09375 -0.78125 0  -0.0625 -0.78125 0  -0.03125 -0.78125 0  0 -0.78125 0  0.03125 -0.78125 0  0.0625 -0.78125 0  0.09375 -0.78125 0  0.125 -0.78125 0  0.15625 -0.78125 0  0.1875 -0.78125 0  0.21875 -0.78125 0  0.25 -0.78125 0  0.28125 -0.78125 0  0.3125 -0.78125 0  0.34375 -0.78125 0  0.375 -0.78125 0  0.40625 -0.78125 0  0.4375 -0.78125 0  0.46875 -0.78125 0  0.5 -0.78125 0  0.53125 -0.78125 0  0.5625 -0.78125 0  0.59375 -0.78125 0  0.625 -0.78125 0  0.65625 -0.78125 0  0.6875 -0.78125 0  0.71875 -0.78125 0  0.75 -0.78125 0  0.78125 -0.78125 0  0.8125 -0.78125 0  0.84375 -0.78125 0  0.875 -0.78125 0  0.90625 -0.78125 0  0.9375 -0.78125 0  0.96875 -0.78125 0  1 -0.78125 0  -1 -0.75 0  -0.96875 -0.75 0  -0.9375 -0.75 0  -0.90625 -0.75 0  -0.875 -0.75 0  -0.84375 -0.75 0  -0.8125 -0.75 0  -0.78125 -0.75 0  -0.75 -0.75 0  -0.71875 -0.75 0  -0.6875 -0.75 0  -0.65625 -0.75 0  -0.625 -0.75 0  -0.59375 -0.75 0  -0.5625 -0.75 0  -0.53125 -0.75 0  -0.5 -0.75 0  -0.46875 -0.75 0  -0.4375 -0.75 0  -0.40625 -0.75
[...]
<PointData  Scalars="f_15"> 
<DataArray  type="Float64"  Name="f_15"  format="ascii">-4.1173265811767490e-01  -4.0777699433039305e-01  -3.9606201690953097e-01  -3.7703792586753726e-01  -3.5143580635432270e-01  -3.2023953346494577e-01  -2.8464796247147434e-01  -2.4602885748720429e-01  -2.0586632905883739e-01  -1.6570380063047058e-01  -1.2708469564620042e-01  -9.1493124652729033e-02  -6.0296851763352255e-02  -3.4694732250137625e-02  -1.5670641208143959e-02  -3.9556637872818568e-03  0.0000000000000000e+00  -3.9556637872818568e-03  -1.5670641208143980e-02  -3.4694732250137653e-02  -6.0296851763352304e-02  -9.1493124652729060e-02  -1.2708469564620056e-01  -1.6570380063047069e-01  -2.0586632905883745e-01  -2.4602885748720429e-01  -2.8464796247147434e-01  -3.2023953346494588e-01  -3.5143580635432270e-01  -3.7703792586753726e-01  -3.9606201690953102e-01  -4.0777699433039305e-01  -4.1173265811767490e-01  -4.0777699433039305e-01  -3.9606201690953102e-01  -3.7703792586753726e-01  -3.5143580635432270e-01  -3.2023953346494588e-01  -2.8464796247147434e-01  -2.4602885748720429e-01  -2.0586632905883745e-01  -1.6570380063047069e-01  -1.2708469564620056e-01  -9.1493124652729060e-02  -6.0296851763352304e-02  -3.4694732250137653e-02  -1.5670641208143980e-02  -3.9556637872818568e-03  0.0000000000000000e+00  -3.9556637872818568e-03  -1.5670641208143959e-02  -3.4694732250137625e-02  -6.0296851763352255e-02  -9.1493124652729033e-02  -1.2708469564620042e-01  -1.6570380063047058e-01  -2.0586632905883739e-01  -2.4602885748720429e-01  -2.8464796247147434e-01  -3.2023953346494577e-01  -3.5143580635432270e-01  -3.7703792586753726e-01  -3.9606201690953097e-01  -4.0777699433039305e-01  -4.1173265811767490e-01  -4.0777699433039305e-01  -3.8481694944912503e-01  -3.8245018765865624e-01  -3.7199384485427867e-01  -3.5396868507435686e-01  -3.2831862703374609e-01  -2.9600973389314983e-01  -2.5845537728195150e-01  -2.1726666372392331e-01  -1.7410364036896225e-01  -1.3058472292151815e-01  -8.8229026129930999e-02  -4.8417407221948573e-02  -1.2364435629080316e-02  1.8902684161859914e-02  4.4560187297415892e-02  6.3999743208967605e-02  7.6836852710078452e-02  8.2915941401108681e-02  8.2312352491587526e-02  7.5331377355347659e-02  6.2504318005799364e-02  4.4581273432507104e-02  2.2519562902862660e-02  -2.5350276645726725e-03  -2.9280224085052070e-02  -5.6313004820964255e-02  -8.2222616067920890e-02  -1.0572944592950244e-01  -1.2585821393486776e-01  -1.4210088535723320e-01  -1.5449976583020117e-01  -1.6359497052220331e-01  -1.7023944822909662e-01  -1.7535289798320133e-01  -1.7971156069031796e-01  -1.8383825329684073e-01  -1.8799724109104510e-01  -1.9225512060966582e-01  -1.9655948649468460e-01  -2.0080273941671070e-01  -2.0486022095971468e-01  -2.0860774275788282e-01  -2.1192941974550733e-01  -2.1472521598739172e-01  -2.1692253462719602e-01  -2.1849124556463723e-01  -2.1945822047681757e-01  -2.1991680992990270e-01  -2.2002856354667857e-01  -2.2001918253298858e-01  -2.2017676239666620e-01  -2.2086579538288578e-01  -2.2256628903224954e-01  -2.2593108221092631e-01  -2.3181363836298724e-01  -2.4120333815665523e-01  -2.5497667509708610e-01  -2.7353898008186295e-01  -2.9631603928860345e-01  -3.2181218573431913e-01  -3.4679951496236899e-01  -3.7050256864731940e-01  -3.8141703170752467e-01  -4.0777699433039305e-01  -3.9606201690953097e-01  -3.7020162110893240e-01  -3.7929338878285518e-01  -3.7003444485311654e-01  -3.5222199573277402e-01  -3.2620697608661148e-01  -2.9366256491921516e-01  -2.5632378470403067e-01  -2.1596403890788662e-01  -1.7431328964838666e-01  -1.3301081679032037e-01  -9.3571645241083051e-02  -5.7357169310926874e-02  -2.5546787697464476e-02  8.8901480060499390e-04  2.1212330271363194e-02  3.4936352971528681e-02  4.1837273509888251e-02  4.1958626888907571e-02  3.5607838966128069e-02  2.3345408609633751e-02  5.9678613360642776e-03  -1.5514018382667480e-02  -3.9900755608080353e-02  -6.5835350916443186e-02  -9.1847660672902592e-02  -1.1642725205057614e-01  -1.3814304561628998e-01  -1.5581519058606932e-01  -1.6870999959995645e-01  -1.7668781412554285e-01  -1.8022388152506094e-01  -1.8026921787145275e-01  -1.7799864423724213e-01  -1.7454591458209986e-01  -1.7081454996421505e-01  -1.6739830578112833e-01  -1.6459444808455287e-01  -1.6247105044178842e-01  -1.6095187389324617e-01  -1.5989443665538783e-01  -1.5914968227533280e-01  -1.5860106259428328e-01  -1.5818614068902173e-01  -1.5790519893959393e-01  -1.5782078112291478e-01  -1.5805094852082352e-01  -1.5875858026753623e-01  -1.6013916934381467e-01  -1.6241032806186706e-01  -1.6580706724954769e-01  -1.7058726721757483e-01  -1.7705117674730073e-01  -1.8557264872540127e-01  -1.9663244283588224e-01  -2.1081443213893389e-01  -2.2872468332473886e-01  -2.5073493748835296e-01  -2.7664192459085818e-01  -3.0516922157346454e-01  -3.3406674749622295e-01  -3.5966638918796157e-01  -3.7992170819402671e-01  -3.8596615729382855e-01  -3.9606201690953097e-01  -3.7703792586753726e-01  -3.4735709557391720e-01  -3.5939792943193699e-01  -3.5169848275844995e-01  -3.3658941137797665e-01  -3.1291474328483515e-01  -2.8239390784935769e-01  -2.4667251861989556e-01  -2.0751322564669761e-01  -1.6665144985903305e-01  -1.2573087771618380e-01  -8.6262899569513232e-02  -4.9598940860177292e-02  -1.6908124560934015e-02  1.0842306817999600e-02  3.2903949185852044e-02  4.8760889862014448e-02  5.8139428627990077e-02  6.1013594941944228e-02  5.7606624935042663e-02  4.8388887840501736e-02  3.4072734636544366e-02  1.5603801575859097e-02  -5.8544346652790943e-03  -2.8951293648161611e-02  -5.2209622065002681e-02  -7.4133873901259334e-02  -9.3371996098910601e-02  -1.0890871775275369e-01  -1.2023222779633912e-01  -1.2740275028642617e-01  -1.3098304042944697e-01  -1.3185435684020422e-01  -1.3099189641954348e-01  -1.2927683596117651e-01  -1.2738611914215978e-01  -1.2575996363175199e-01  -1.2462424090426556e-01  -1.2404116567432462e-01  -1.2396748642891227e-01  -1.2430718979925590e-01  -1.2495262872553355e-01  -1.2581307297849559e-01  -1.2683256583018565e-01  -1.2799993615947308e-01  -1.2935351490183791e-01  -1.3098240185921506e-01  -1.3302552391495318e-01  -1.3566959202122214e-01  -1.3914730997602492e-01  -1.4373795371030687e-01  -1.4977259529003140e-01  -1.5764622205709350e-01  -1.6783206772448242e-01  -1.8088740405827969e-01  -1.9740430509519502e-01  -2.1787680143833249e-01  -2.4238713731274739e-01  -2.7029920423334630e-01  -2.9982879636073279e-01  -3.2837845281908318e-01  -3.5225306910761123e-01  -3.6914512481535317e-01  -3.7334558128466400e-01  -3.7703792586753726e-01  -3.5143580635432270e-01  -3.2136555190156785e-01  -3.3426465941730898e-01  -3.2818429979528679e-01  -3.1475400657886266e-01  -2.9278868032853422e-01  -2.6399639134210556e-01  -2.2992883993046681e-01  -1.9234405481268832e-01  -1.5299023863817438e-01  -1.1352739441276999e-01  -7.5474189565888722e-02  -4.0175789299096674e-02  -8.7812398439745722e-03  1.7774896522671668e-02  3.8788259056661896e-02  5.3797483136307382e-02  6.2593217217644756e-02  6.5222679173650072e-02  6.1989413852074161e-02  5.3448096718208431e-02  4.0393646266814659e-02  2.3842052802395965e-02  4.9968236018724287e-03  -1.4809056630146316e-02  -3.4206741327527719e-02  -5.1924173650231477e-02  -6.6942119889784324e-02  -7.8634056088341842e-02  -8.6839226630603519e-02  -9.1835379549090657e-02  -9.4218632650981321e-02  -9.4736499614344591e-02  -9.4130941350948419e-02  -9.3029825188811782e-02  -9.1896151434332204e-02  -9.1023755414679872e-02  -9.0561297851408526e-02  -9.0548757900016139e-02  -9.0955856249737135e-02  -9.1716555500812605e-02  -9.2757054733236671e-02  -9.4016845128530507e-02  -9.5463561582959086e-02  -9.7102868785140822e-02  -9.8984589817458196e-02  -1.0120612529067075e-01  -1.0391405111696760e-01  -1.0730488118214297e-01  -1.1162620505350832e-01  -1.1717995504652139e-01  -1.2432914220123641e-01  -1.3350895620451883e-01  -1.4523359934655747e-01  -1.6008462040128033e-01  -1.7862270486925630e-01  -2.0121201998444097e-01  -2.2765548663395957e-01  -2.5695578132830604e-01  -2.8693408031013684e-01  -3.1485892894494705e-01  -3.3714241238104053e-01  -3.5156184802490620e-01  -3.5548907163194482e-01  -3.5143580635432270e-01  -3.2023953346494577e-01  -2.9522471241565407e-01  -3.0575060489290790e-01  -2.9964965766647755e-01  -2.8677157110161350e-01  -2.6613219340297956e-01  -2.3904183797282083e-01  -2.0683925879753062e-01  -1.7112704308038132e-01  -1.3354742053030036e-01  -9.5693616923357941e-02  -5.9038972993418662e-02  -2.4893079642406613e-02  5.6269819088593182e-03  3.1616786515156897e-02  5.2399680391108351e-02  6.7538197909298311e-02  7.6841962393877972e-02  8.0371760872723796e-02  7.8439202246631090e-02  7.1600722963475055e-02  6.0643320822478863e-02  4.6557092552538391e-02  3.0487249534521161e-02  1.3657963308091377e-02  -2.7344819813977053e-03  -1.7649319412418096e-02  -3.0323589892097016e-02  -4.0353150391847080e-02  -4.7703771378825713e-02  -5.2648456193659335e-02  -5.5655623806277199e-02  -5.7267233201092817e-02  -5.8000018540949105e-02  -5.8284892666941923e-02  -5.8442640920161042e-02  -5.8685360351170959e-02  -5.9132386792786422e-02  -5.9832345600128033e-02  -6.0786321578903062e-02  -6.1969430324421447e-02  -6.3349540535172819e-02  -6.4902691626028367e-02  -6.6625318117900942e-02  -6.8543630787093648e-02  -7.0720682148309413e-02  -7.3261643424785208e-02  -7.6317921388401461e-02  -8.0090864837336323e-02  -8.4836069265503078e-02  -9.0869711351869206e-02  -9.8577525272418004e-02  -1.0842607589830981e-01  -1.2096303320556037e-01  -1.3678854086134215e-01  -1.5642651603317156e-01  -1.8011358867338920e-01  -2.0739067079409429e-01  -2.3697569018549469e-01  -2.6639533788368103e-01  -2.9300252706295049e-01  -3.1334112172669193e-01  -3.2570859021884124e-01  -3.2917251400039055e-01  -3.2023953346494577e-01  -2.8464796247147434e-01  -2.7167960403297253e-01  -2.7732286279257162e-01  -2.7014529762712158e-01  -2.5685032354902221e-01  -2.3675466787457231e-01  -2.1085264771214077e-01  -1.8028213487048031e-01  -1.4643806594488470e-01  -1.1080479739764404e-01  -7.4860460352400154e-02  -3.9995081826118821e-02  -7.4550246632506464e-03  2.1695022716241290e-02  4.6597853202876460e-02  6.6621538358964269e-02  8.1371499359333924e-02  9.0697666385440245e-02  9.4696510451281496e-02  9.3706852814974179e-02  8.8297297304334041e-02  7.9241776036786532e-02  6.7478496679519911e-02  5.4047795221015819e-02  4.0007825446880550e-02  2.6334678666562646e-02  1.3823529733149919e-02  3.0142650993925900e-03  -5.8376424001463003e-03  -1.2737895032688592e-02  -1.7888870260146926e-02  -2.1607202054862207e-02  -2.4247165025617721e-02  -2.6144408975614007e-02  -2.7583438176296316e-02  -2.8784712830609693e-02  -2.9904901423123763e-02  -3.1044623103824557e-02  -3.2259927835795274e-02  -3.3575247330129419e-02  -3.4996531136316469e-02  -3.6523727171595757e-02  -3.8162130738173712e-02  -3.9932324267107869e-02  -4.1878694134135669e-02  -4.4076634065108859e-02  -4.6638747591566054e-02  -4.9720462638338500e-02  -5.3525767199003468e-02  -5.8313929644807562e-02  -6.4408545318991400e-02  -7.2208763091302045e-02  -8.2201165307813767e-02  -9.4953744516155916e-02  -1.1107181198631841e-01  -1.3103147173814828e-01  -1.5494912907045491e-01  -1.8214042870352229e-01  -2.1114813633684806e-01  -2.3931492076108646e-01  -2.6428831649256262e-01  -2.8263496846018754e-01  -2.9352710655206066e-01  -2.9628904575022580e-01  -2.8464796247147434e-01  -2.4602885748720429e-01  -2.5246985757067275e-01  -2.5140031967094251e-01  -2.4223280074954628e-01  -2.2758247582597438e-01  -2.0722590505746413e-01  -1.8191598142717655e-01  -1.5258799278815766e-01  -1.2041310205335477e-01  -8.6678644741357433e-02  -5.2697753742977527e-02  -1.9729505801058918e-02  1.1082122044478275e-02  3.8753231076365573e-02  6.2491597475251168e-02  8.1718132227739951e-02  9.6080449061101664e-02  1.0545959690293130e-01  1.0996984627289465e-01  1.0995027180151901e-01  1.0594583502035866e-01  9.8674937942472632e-02  8.8980747169456115e-02  7.7765821449298098e-02  6.5914287003294131e-02  5.4211924644774687e-02  4.3279220797388829e-02  3.3532036933043005e-02  2.5177642570577610e-02  1.8243057492649099e-02  1.2623537416362008e-02  8.1359908339193477e-03  4.5653688488492793e-03  1.6982871424102853e-03  -6.5640543399160187e-04  -2.6575133298549275e-03  -4.4286806114145873e-03  -6.0603394613591025e-03  -7.6147112104587951e-03  -9.1327386732355936e-03  -1.0642136117618918e-02  -1.2165912146508938e-02  -1.3730853924520999e-02  -1.5375620463150070e-02  -1.7158266902873410e-02  -1.9163202332253545e-02  -2.1507757823216695e-02  -2.4348747086107923e-02  -2.7889664499442537e-02  -3.2389370251301244e-02  -3.8173463894281771e-02  -4.5647513870777943e-02  -5.5309417597501145e-02  -6.7737222480855869e-02  -8.3532018283802426e-02  -1.0311871326092205e-01  -1.2651463138684849e-01  -1.5286159714803482e-01  -1.8064280175935052e-01  -2.0709391732031701e-01  -2.3031976777030952e-01  -2.4667841153926276e-01  -2.5661892193166053e-01  -2.5812032115733413e-01  -2.4602885748720429e-01  -2.0586632905883739e-01  -2.3817234470738666e-01  -2.2929177877784690e-01  -2.1765989174408609e-01  -2.0112098162412637e-01  -1.7995891299569550e-01  -1.5474214452373106e-01  -1.2624984260377034e-01  -9.5459841817832181e-02  -6.3465357947800213e-02  -3.1400718762277173e-02  -3.7083637548600203e-04  2.8608450047763308e-02  5.4657538646372079e-02  7.7068078347982599e-02  9.5327247487033653e-02  1.0913260609940886e-01  1.1839820993734378e-01  1.2325176395137424e-01  1.2402177961265466e-01  1.2121315893162213e-01  1.1546989038152189e-01  1.0752492391073429e-01  9.8140116387780182e-02  8.8042724526426280e-02  7.7867898671994465e-02  6.8117004003665382e-02  5.9138397140829115e-02  5.1131408750992820e-02  4.4168360509953278e-02  3.8226148389400569e-02  3.3219120884540855e-02  2.9027666897338975e-02  2.5520096657115129e-02  2.2567766754966065e-02  2.0054457317989712e-02  1.7881238793521343e-02  1.5967828291058497e-02  1.4251238804714265e-02  1.2682352134395775e-02  1.1221012127966360e-02  9.8301538751605372e-03  8.4694365925683211e-03  7.0886987719095953e-03  5.6214407138266941e-03  3.9783439953677948e-03  2.0406800037657507e-03  -3.4677012368328886e-04  -3.3839345509033844e-03  -7.3256357675002002e-03  -1.2494857992590870e-02  -1.9297586471997488e-02  -2.8235565305359069e-02  -3.9888640781206505e-02  -5.4848492687962783e-02  -7.3493627210203361e-02  -9.5774601394149353e-02  -1.2071669157962657e-01  -1.4684834118037579e-01  -1.7133217735279638e-01  -1.9285155823511296e-01  -2.0725570257400588e-01  -2.1673496323428534e-01  -2.1633417015377132e-01  -2.0586632905883739e-01  -1.6570380063047058e-01  -2.2844326273057206e-01  -2.1128804207681878e-01  -1.9712167410331607e-01  -1.7851070064309449e-01  -1.5628064001232092e-01  -1.3085524242278243e-01  -1.0289896574975814e-01  -7.3232232456921592e-02  -4.2776493035293038e-02  -1.2494770206775561e-02  1.6667339136920759e-02  4.3834612376598976e-02  6.8246503956542984e-02  8.9291619004576203e-02  1.0653219514960910e-01  1.1971879313515330e-01  1.2879526226478272e-01  1.3389371494898125e-01  1.3531895977122399e-01  1.3352200334201178e-01  1.2906303326014834e-01  1.2256591286640896e-01  1.1466828729546040e-01  1.0597325816284985e-01  9.7009179252977640e-02  8.8202853148013266e-02  7.9868438358476443e-02  7.2210832149293885e-02  6.5339595678774023e-02  5.9288460531086634e-02  5.4036058714277642e-02  4.9524937450599361e-02  4.5677410585877307e-02  4.2407814189826150e-02  3.9631299447456525e-02  3.7269474038948876e-02  3.5253283494201378e-02  3.3523521397713467e-02  3.2029398340796510e-02  3.0725590217827337e-02  2.9568191138659369e-02  2.8509919324959998e-02  2.7494857181471610e-02  2.6452857430413954e-02  2.5293626658296455e-02  2.3900296638095470e-02  2.2122104212602141e-02  1.9765487973376163e-02  1.6582797320584586e-02  1.2257545176619740e-02  6.3882948024310974e-03  -1.5245889147933059e-03  -1.2057186816792230e-02  -2.5791234996964903e-02  -4.3070759076607394e-02  -6.3817311849250630e-02  -8.6993003485447210e-02  -1.1125356131478988e-01  -1.3368226763390550e-01  -1.5363194719398296e-01  -1.6611174658536743e-01  -1.7558787252439137e-01  -1.7258468523024786e-01  -1.6570380063047058e-01  -1.2708469564620042e-01  -2.2243458018158727e-01  -1.9703943821047640e-01  -1.8055511874202726e-01  -1.5995154460783828e-01  -1.3663869031146678e-01  -1.1090644692789461e-01  -8.3332225024334433e-02  -5.4610953460021934e-02  -2.5520256833043854e-02  3.1287622270740304e-03  3.0539704753122732e-02  5.5975515923406889e-02  7.8797070191515328e-02  9.8494014529987975e-02  1.1470690156233745e-01  1.2724007282053917e-01  1.3606495671522048e-01  1.4131355491691269e-01  1.4326213664147386e-01  1.4230570710972748e-01  1.3892475974147073e-01  1.3364703089554347e-01  1.2700811224279082e-01  1.1951533928656229e-01  1.1161898399888218e-01  1.0369338797437265e-01  9.6028693935667764e-02  8.8831946076727300e-02  8.2235094692603275e-02  7.6307085715624196e-02  7.1067542630700281e-02  6.6500223058514774e-02  6.2565104704314770e-02  5.9208490629554841e-02  5.6370867844031503e-02  5.3992481948723477e-02  5.2016728754775317e-02  5.0391570869764021e-02  4.9069250490494092e-02  4.8004610021588554e-02  4.7152320503114707e-02  4.6463288190509662e-02  4.5880424324385764e-02  4.5333873185404078e-02  4.4735648469380718e-02  4.3973469231444580e-02  4.2903371856457304e-02  4.1340388243841751e-02  3.9046468388530202e-02  3.5714626687946442e-02  3.0951770952048156e-02  2.4264688673921741e-02  1.5084002699876113e-02  2.8348588664399471e-03  -1.2808260414905565e-02  -3.1774285237397226e-02  -5.3005087135956738e-02  -7.5338409551605645e-02  -9.5744673226965268e-02  -1.1431737940986857e-01  -1.2489674884574274e-01  -1.3480923099889772e-01  -1.2848650471992640e-01  -1.2708469564620042e-01  -9.1493124652729033e-02  -2.1917690889110392e-01  -1.8594687405114024e-01  -1.6749261766554843e-01  -1.4510347127743073e-01  -1.2082330137482741e-01  -9.4807741512464475e-02  -6.7564697949993702e-02  -3.9684770934089897e-02  -1.1824174888598370e-02  1.5337806759641637e-02  4.1138293560138581e-02  6.4967624899588891e-02  8.6301379063380534e-02  1.0472607244503369e-01  1.1995742545358315e-01  1.3185044906501608e-01  1.4040093180224550e-01  1.4573826529247544e-01  1.4811002590626973e-01  1.4785936251276874e-01  1.4539701466163085e-01  1.4117051586377713e-01  1.3563361846048635e-01  1.2921896589293880e-01  1.2231646097604505e-01  1.1525874519370589e-01  1.0831400442988492e-01  1.0168528132492560e-01  9.5514816814108755e-02  8.9891725429288125e-02  8.4861415947497423e-02  8.0435469530836162e-02  7.6601021992026577e-02  7.3329021174797018e-02  7.0580979582518591e-02  6.8314055181457126e-02  6.6484437191049864e-02  6.5049136704574129e-02  6.3966347535474644e-02  6.3194587235549368e-02  6.2690826325584981e-02  6.2407787583899650e-02  6.2290535383645200e-02  6.2272387233805362e-02  6.2270057902063206e-02  6.2177787345371882e-02  6.1859998457104187e-02  6.1141744132189042e-02  5.9796106296473431e-02  5.7527529554228171e-02  5.3953723431624474e-02  4.8590515749760740e-02  4.0875965517011073e-02  3.0237135320380446e-02  1.6350542018444013e-02  -7.4954082729223996e-04  -2.0014866672182059e-02  -4.0493557533545901e-02  -5.8998837293622507e-02  -7.6420061497701156e-02  -8.5127926251486533e-02  -9.5907488806125915e-02  -8.5554076732057255e-02  -9.1493124652729033e-02  -6.0296851763352255e-02  -2.1781216429245961e-01  -1.7741369494488826e-01  -1.5734438840190759e-01  -1.3340542662506000e-01  -1.0831076688713270e-01  -8.2080518415963227e-02  -5.5164383123870890e-02  -2.8061749999078633e-02  -1.3236395011973255e-03  2.4485523358546112e-02  4.8820356219657697e-02  7.1184611501867820e-02  9.1157027945336047e-02  1.0841178932946909e-01  1.2273265053564658e-01  1.3402009979455665e-01  1.4229126872357128e-01  1.4767271660756118e-01  1.5038669141064706e-01  1.5073202733726571e-01  1.4906135424706535e-01  1.4575670924145939e-01  1.4120578174376350e-01  1.3578085367530637e-01  1.2982200176805309e-01  1.2362542987433092e-01  1.1743706281