<?xml version="1.0"?>
<VTKFile type="UnstructuredGrid"  version="0.1"  >
<UnstructuredGrid>
<Piece  NumberOfPoints="4225" NumberOfCells="8192">
<Points>
<DataArray  type="Float64"  NumberOfComponents="3"  format="ascii">-1 -1 0  -0.96875 -1 0  -0.9375 -1 0  -0.90625 -1 0  -0.875 -1 0  -0.84375 -1 0  -0.8125 -1 0  -0.78125 -1 0  -0.75 -1 0  -0.71875 -1 0  -0.6875 -1 0  -0.65625 -1 0  -0.625 -1 0  -0.59375 -1 0  -0.5625 -1 0  -0.53125 -1 0  -0.5 -1 0  -0.46875 -1 0  -0.4375 -1 0  -0.40625 -1 0  -0.375 -1 0  -0.34375 -1 0  -0.3125 -1 0  -0.28125 -1 0  -0.25 -1 0  -0.21875 -1 0  -0.1875 -1 0  -0.15625 -1 0  -0.125 -1 0  -0.09375 -1 0  -0.0625 -1 0  -0.03125 -1 0  0 -1 0  0.03125 -1 0  0.0625 -1 0  0.09375 -1 0  0.125 -1 0  0.15625 -1 0  0.1875 -1 0  0.21875 -1 0  0.25 -1 0  0.28125 -1 0  0.3125 -1 0  0.34375 -1 0  0.375 -1 0  0.40625 -1 0  0.4375 -1 0  0.46875 -1 0  0.5 -1 0  0.53125 -1 0  0.5625 -1 0  0.59375 -1 0  0.625 -1 0  0.65625 -1 0  0.6875 -1 0  0.71875 -1 0  0.75 -1 0  0.78125 -1 0  0.8125 -1 0  0.84375 -1 0  0.875 -1 0  0.90625 -1 0  0.9375 -1 0  0.96875 -1 0  1 -1 0  -1 -0.96875 0  -0.96875 -0.96875 0  -0.9375 -0.96875 0  -0.90625 -0.96875 0  -0.875 -0.96875 0  -0.84375 -0.96875 0  -0.8125 -0.96875 0  -0.78125 -0.96875 0  -0.75 -0.96875 0  -0.71875 -0.96875 0  -0.6875 -0.96875 0  -0.65625 -0.96875 0  -0.625 -0.96875 0  -0.59375 -0.96875 0  -0.5625 -0.96875 0  -0.53125 -0.96875 0  -0.5 -0.96875 0  -0.46875 -0.96875 0  -0.4375 -0.96875 0  -0.40625 -0.96875 0  -0.375 -0.96875 0  -0.34375 -0.96875 0  -0.3125 -0.96875 0  -0.28125 -0.96875 0  -0.25 -0.96875 0  -0.21875 -0.96875 0  -0.1875 -0.96875 0  -0.15625 -0.96875 0  -0.125 -0.96875 0  -0.09375 -0.96875 0  -0.0625 -0.96875 0  -0.03125 -0.96875 0  0 -0.96875 0  0.03125 -0.96875 0  0.0625 -0.96875 0  0.09375 -0.96875 0  0.125 -0.96875 0  0.15625 -0.96875 0  0.1875 -0.96875 0  0.21875 -0.96875 0  0.25 -0.96875 0  0.28125 -0.96875 0  0.3125 -0.96875 0  0.34375 -0.96875 0  0.375 -0.96875 0  0.40625 -0.96875 0  0.4375 -0.96875 0  0.46875 -0.96875 0  0.5 -0.96875 0  0.53125 -0.96875 0  0.5625 -0.96875 0  0.59375 -0.96875 0  0.625 -0.96875 0  0.65625 -0.96875 0  0.6875 -0.96875 0  0.71875 -0.96875 0  0.75 -0.96875 0  0.78125 -0.96875 0  0.8125 -0.96875 0  0.84375 -0.96875 0  0.875 -0.96875 0  0.90625 -0.96875 0  0.9375 -0.96875 0  0.96875 -0.96875 0  1 -0.96875 0  -1 -0.9375 0  -0.96875 -0.9375 0  -0.9375 -0.9375 0  -0.90625 -0.9375 0  -0.875 -0.9375 0  -0.84375 -0.9375 0  -0.8125 -0.9375 0  -0.78125 -0.9375 0  -0.75 -0.9375 0  -0.71875 -0.9375 0  -0.6875 -0.9375 0  -0.65625 -0.9375 0  -0.625 -0.9375 0  -0.59375 -0.9375 0  -0.5625 -0.9375 0  -0.53125 -0.9375 0  -0.5 -0.9375 0  -0.46875 -0.9375 0  -0.4375 -0.9375 0  -0.40625 -0.9375 0  -0.375 -0.9375 0  -0.34375 -0.9375 0  -0.3125 -0.9375 0  -0.28125 -0.9375 0  -0.25 -0.9375 0  -0.21875 -0.9375 0  -0.1875 -0.9375 0  -0.15625 -0.9375 0  -0.125 -0.9375 0  -0.09375 -0.9375 0  -0.0625 -0.9375 0  -0.03125 -0.9375 0  0 -0.9375 0  0.03125 -0.9375 0  0.0625 -0.9375 0  0.09375 -0.9375 0  0.125 -0.9375 0  0.15625 -0.9375 0  0.1875 -0.9375 0  0.21875 -0.9375 0  0.25 -0.9375 0  0.28125 -0.9375 0  0.3125 -0.9375 0  0.34375 -0.9375 0  0.375 -0.9375 0  0.40625 -0.9375 0  0.4375 -0.9375 0  0.46875 -0.9375 0  0.5 -0.9375 0  0.53125 -0.9375 0  0.5625 -0.9375 0  0.59375 -0.9375 0  0.625 -0.9375 0  0.65625 -0.9375 0  0.6875 -0.9375 0  0.71875 -0.9375 0  0.75 -0.9375 0  0.78125 -0.9375 0  0.8125 -0.9375 0  0.84375 -0.9375 0  0.875 -0.9375 0  0.90625 -0.9375 0  0.9375 -0.9375 0  0.96875 -0.9375 0  1 -0.9375 0  -1 -0.90625 0  -0.96875 -0.90625 0  -0.9375 -0.90625 0  -0.90625 -0.90625 0  -0.875 -0.90625 0  -0.84375 -0.90625 0  -0.8125 -0.90625 0  -0.78125 -0.90625 0  -0.75 -0.90625 0  -0.71875 -0.90625 0  -0.6875 -0.90625 0  -0.65625 -0.90625 0  -0.625 -0.90625 0  -0.59375 -0.90625 0  -0.5625 -0.90625 0  -0.53125 -0.90625 0  -0.5 -0.90625 0  -0.46875 -0.90625 0  -0.4375 -0.90625 0  -0.40625 -0.90625 0  -0.375 -0.90625 0  -0.34375 -0.90625 0  -0.3125 -0.90625 0  -0.28125 -0.90625 0  -0.25 -0.90625 0  -0.21875 -0.90625 0  -0.1875 -0.90625 0  -0.15625 -0.90625 0  -0.125 -0.90625 0  -0.09375 -0.90625 0  -0.0625 -0.90625 0  -0.03125 -0.90625 0  0 -0.90625 0  0.03125 -0.90625 0  0.0625 -0.90625 0  0.09375 -0.90625 0  0.125 -0.90625 0  0.15625 -0.90625 0  0.1875 -0.90625 0  0.21875 -0.90625 0  0.25 -0.90625 0  0.28125 -0.90625 0  0.3125 -0.90625 0  0.34375 -0.90625 0  0.375 -0.90625 0  0.40625 -0.90625 0  0.4375 -0.90625 0  0.46875 -0.90625 0  0.5 -0.90625 0  0.53125 -0.90625 0  0.5625 -0.90625 0  0.59375 -0.90625 0  0.625 -0.90625 0  0.65625 -0.90625 0  0.6875 -0.90625 0  0.71875 -0.90625 0  0.75 -0.90625 0  0.78125 -0.90625 0  0.8125 -0.90625 0  0.84375 -0.90625 0  0.875 -0.90625 0  0.90625 -0.90625 0  0.9375 -0.90625 0  0.96875 -0.90625 0  1 -0.90625 0  -1 -0.875 0  -0.96875 -0.875 0  -0.9375 -0.875 0  -0.90625 -0.875 0  -0.875 -0.875 0  -0.84375 -0.875 0  -0.8125 -0.875 0  -0.78125 -0.875 0  -0.75 -0.875 0  -0.71875 -0.875 0  -0.6875 -0.875 0  -0.65625 -0.875 0  -0.625 -0.875 0  -0.59375 -0.875 0  -0.5625 -0.875 0  -0.53125 -0.875 0  -0.5 -0.875 0  -0.46875 -0.875 0  -0.4375 -0.875 0  -0.40625 -0.875 0  -0.375 -0.875 0  -0.34375 -0.875 0  -0.3125 -0.875 0  -0.28125 -0.875 0  -0.25 -0.875 0  -0.21875 -0.875 0  -0.1875 -0.875 0  -0.15625 -0.875 0  -0.125 -0.875 0  -0.09375 -0.875 0  -0.0625 -0.875 0  -0.03125 -0.875 0  0 -0.875 0  0.03125 -0.875 0  0.0625 -0.875 0  0.09375 -0.875 0  0.125 -0.875 0  0.15625 -0.875 0  0.1875 -0.875 0  0.21875 -0.875 0  0.25 -0.875 0  0.28125 -0.875 0  0.3125 -0.875 0  0.34375 -0.875 0  0.375 -0.875 0  0.40625 -0.875 0  0.4375 -0.875 0  0.46875 -0.875 0  0.5 -0.875 0  0.53125 -0.875 0  0.5625 -0.875 0  0.59375 -0.875 0  0.625 -0.875 0  0.65625 -0.875 0  0.6875 -0.875 0  0.71875 -0.875 0  0.75 -0.875 0  0.78125 -0.875 0  0.8125 -0.875 0  0.84375 -0.875 0  0.875 -0.875 0  0.90625 -0.875 0  0.9375 -0.875 0  0.96875 -0.875 0  1 -0.875 0  -1 -0.84375 0  -0.96875 -0.84375 0  -0.9375 -0.84375 0  -0.90625 -0.84375 0  -0.875 -0.84375 0  -0.84375 -0.84375 0  -0.8125 -0.84375 0  -0.78125 -0.84375 0  -0.75 -0.84375 0  -0.71875 -0.84375 0  -0.6875 -0.84375 0  -0.65625 -0.84375 0  -0.625 -0.84375 0  -0.59375 -0.84375 0  -0.5625 -0.84375 0  -0.53125 -0.84375 0  -0.5 -0.84375 0  -0.46875 -0.84375 0  -0.4375 -0.84375 0  -0.40625 -0.84375 0  -0.375 -0.84375 0  -0.34375 -0.84375 0  -0.3125 -0.84375 0  -0.28125 -0.84375 0  -0.25 -0.84375 0  -0.21875 -0.84375 0  -0.1875 -0.84375 0  -0.15625 -0.84375 0  -0.125 -0.84375 0  -0.09375 -0.84375 0  -0.0625 -0.84375 0  -0.03125 -0.84375 0  0 -0.84375 0  0.03125 -0.84375 0  0.0625 -0.84375 0  0.09375 -0.84375 0  0.125 -0.84375 0  0.15625 -0.84375 0  0.1875 -0.84375 0  0.21875 -0.84375 0  0.25 -0.84375 0  0.28125 -0.84375 0  0.3125 -0.84375 0  0.34375 -0.84375 0  0.375 -0.84375 0  0.40625 -0.84375 0  0.4375 -0.84375 0  0.46875 -0.84375 0  0.5 -0.84375 0  0.53125 -0.84375 0  0.5625 -0.84375 0  0.59375 -0.84375 0  0.625 -0.84375 0  0.65625 -0.84375 0  0.6875 -0.84375 0  0.71875 -0.84375 0  0.75 -0.84375 0  0.78125 -0.84375 0  0.8125 -0.84375 0  0.84375 -0.84375 0  0.875 -0.84375 0  0.90625 -0.84375 0  0.9375 -0.84375 0  0.96875 -0.84375 0  1 -0.84375 0  -1 -0.8125 0  -0.96875 -0.8125 0  -0.9375 -0.8125 0  -0.90625 -0.8125 0  -0.875 -0.8125 0  -0.84375 -0.8125 0  -0.8125 -0.8125 0  -0.78125 -0.8125 0  -0.75 -0.8125 0  -0.71875 -0.8125 0  -0.6875 -0.8125 0  -0.65625 -0.8125 0  -0.625 -0.8125 0  -0.59375 -0.8125 0  -0.5625 -0.8125 0  -0.53125 -0.8125 0  -0.5 -0.8125 0  -0.46875 -0.8125 0  -0.4375 -0.8125 0  -0.40625 -0.8125 0  -0.375 -0.8125 0  -0.34375 -0.8125 0  -0.3125 -0.8125 0  -0.28125 -0.8125 0  -0.25 -0.8125 0  -0.21875 -0.8125 0  -0.1875 -0.8125 0  -0.15625 -0.8125 0  -0.125 -0.8125 0  -0.09375 -0.8125 0  -0.0625 -0.8125 0  -0.03125 -0.8125 0  0 -0.8125 0  0.03125 -0.8125 0  0.0625 -0.8125 0  0.09375 -0.8125 0  0.125 -0.8125 0  0.15625 -0.8125 0  0.1875 -0.8125 0  0.21875 -0.8125 0  0.25 -0.8125 0  0.28125 -0.8125 0  0.3125 -0.8125 0  0.34375 -0.8125 0  0.375 -0.8125 0  0.40625 -0.8125 0  0.4375 -0.8125 0  0.46875 -0.8125 0  0.5 -0.8125 0  0.53125 -0.8125 0  0.5625 -0.8125 0  0.59375 -0.8125 0  0.625 -0.8125 0  0.65625 -0.8125 0  0.6875 -0.8125 0  0.71875 -0.8125 0  0.75 -0.8125 0  0.78125 -0.8125 0  0.8125 -0.8125 0  0.84375 -0.8125 0  0.875 -0.8125 0  0.90625 -0.8125 0  0.9375 -0.8125 0  0.96875 -0.8125 0  1 -0.8125 0  -1 -0.78125 0  -0.96875 -0.78125 0  -0.9375 -0.78125 0  -0.90625 -0.78125 0  -0.875 -0.78125 0  -0.84375 -0.78125 0  -0.8125 -0.78125 0  -0.78125 -0.78125 0  -0.75 -0.78125 0  -0.71875 -0.78125 0  -0.6875 -0.78125 0  -0.65625 -0.78125 0  -0.625 -0.78125 0  -0.59375 -0.78125 0  -0.5625 -0.78125 0  -0.53125 -0.78125 0  -0.5 -0.78125 0  -0.46875 -0.78125 0  -0.4375 -0.78125 0  -0.40625 -0.78125 0  -0.375 -0.78125 0  -0.34375 -0.78125 0  -0.3125 -0.78125 0  -0.28125 -0.78125 0  -0.25 -0.78125 0  -0.21875 -0.78125 0  -0.1875 -0.78125 0  -0.15625 -0.78125 0  -0.125 -0.78125 0  -0.09375 -0.78125 0  -0.0625 -0.78125 0  -0.03125 -0.78125 0  0 -0.78125 0  0.03125 -0.78125 0  0.0625 -0.78125 0  0.09375 -0.78125 0  0.125 -0.78125 0  0.15625 -0.78125 0  0.1875 -0.78125 0  0.21875 -0.78125 0  0.25 -0.78125 0  0.28125 -0.78125 0  0.3125 -0.78125 0  0.34375 -0.78125 0  0.375 -0.78125 0  0.40625 -0.78125 0  0.4375 -0.78125 0  0.46875 -0.78125 0  0.5 -0.78125 0  0.53125 -0.78125 0  0.5625 -0.78125 0  0.59375 -0.78125 0  0.625 -0.78125 0  0.65625 -0.78125 0  0.6875 -0.78125 0  0.71875 -0.78125 0  0.75 -0.78125 0  0.78125 -0.78125 0  0.8125 -0.78125 0  0.84375 -0.78125 0  0.875 -0.78125 0  0.90625 -0.78125 0  0.9375 -0.78125 0  0.96875 -0.78125 0  1 -0.78125 0  -1 -0.75 0  -0.96875 -0.75 0  -0.9375 -0.75 0  -0.90625 -0.75 0  -0.875 -0.75 0  -0.84375 -0.75 0  -0.8125 -0.75 0  -0.78125 -0.75 0  -0.75 -0.75 0  -0.71875 -0.75 0  -0.6875 -0.75 0  -0.65625 -0.75 0  -0.625 -0.75 0  -0.59375 -0.75 0  -0.5625 -0.75 0  -0.53125 -0.75 0  -0.5 -0.75 0  -0.46875 -0.75 0  -0.4375 -0.75 0  -0.40625 -0.75
[...]
<PointData  Scalars="f_15"> 
<DataArray  type="Float64"  Name="f_15"  format="ascii">-4.2578345906645648e-01  -4.2169280417900418e-01  -4.0957804108990631e-01  -3.8990473335063991e-01  -3.6342891514470638e-01  -3.3116803731795003e-01  -2.9436186731314440e-01  -2.5442484560243622e-01  -2.1289172953322819e-01  -1.7135861346402018e-01  -1.3142159175331197e-01  -9.4615421748506498e-02  -6.2354543921750119e-02  -3.5878725715816587e-02  -1.6205417976550011e-02  -4.0906548874522879e-03  0.0000000000000000e+00  -4.0906548874522879e-03  -1.6205417976550035e-02  -3.5878725715816615e-02  -6.2354543921750175e-02  -9.4615421748506554e-02  -1.3142159175331214e-01  -1.7135861346402026e-01  -2.1289172953322824e-01  -2.5442484560243622e-01  -2.9436186731314440e-01  -3.3116803731795003e-01  -3.6342891514470638e-01  -3.8990473335063991e-01  -4.0957804108990636e-01  -4.2169280417900418e-01  -4.2578345906645648e-01  -4.2169280417900418e-01  -4.0957804108990636e-01  -3.8990473335063991e-01  -3.6342891514470638e-01  -3.3116803731795003e-01  -2.9436186731314440e-01  -2.5442484560243622e-01  -2.1289172953322824e-01  -1.7135861346402026e-01  -1.3142159175331214e-01  -9.4615421748506554e-02  -6.2354543921750175e-02  -3.5878725715816615e-02  -1.6205417976550035e-02  -4.0906548874522879e-03  0.0000000000000000e+00  -4.0906548874522879e-03  -1.6205417976550011e-02  -3.5878725715816587e-02  -6.2354543921750119e-02  -9.4615421748506498e-02  -1.3142159175331197e-01  -1.7135861346402018e-01  -2.1289172953322819e-01  -2.5442484560243622e-01  -2.9436186731314440e-01  -3.3116803731795003e-01  -3.6342891514470638e-01  -3.8990473335063991e-01  -4.0957804108990631e-01  -4.2169280417900418e-01  -4.2578345906645648e-01  -4.2169280417900418e-01  -3.6711928527121340e-01  -3.6293185139150264e-01  -3.4808703143631109e-01  -3.2495581031521870e-01  -2.9352075290977386e-01  -2.5500281897887866e-01  -2.1106620937394097e-01  -1.6356463859219950e-01  -1.1438726681270364e-01  -6.5362230610420430e-02  -1.8193452006547411e-02  2.5582469470053472e-02  6.4627072691396767e-02  9.7822905657754283e-02  1.2429069794808881e-01  1.4340190011207252e-01  1.5478706002548909e-01  1.5834025544006602e-01  1.5421964390441070e-01  1.4284407928158568e-01  1.2488544180526262e-01  1.0125574352327107e-01  7.3086780939131180e-02  4.1697892032652555e-02  8.5443394036598917e-03  -2.4863356240962291e-02  -5.7076355219334553e-02  -8.6856058672915737e-02  -1.1332774636196442e-01  -1.3609123117982083e-01  -1.5523847557688603e-01  -1.7125804603106612e-01  -1.8485557114904050e-01  -1.9675621868797863e-01  -2.0755480448206529e-01  -2.1764622461531508e-01  -2.2722884178458011e-01  -2.3634977537463880e-01  -2.4495921295126802e-01  -2.5295334526204483e-01  -2.6020047881063174e-01  -2.6655525380297385e-01  -2.7186918494833107e-01  -2.7600406395179533e-01  -2.7885049086853686e-01  -2.8034970812171689e-01  -2.8051395019202491e-01  -2.7943967958066973e-01  -2.7730896654431558e-01  -2.7437733040927170e-01  -2.7095075179565298e-01  -2.6736201606713089e-01  -2.6396208003471672e-01  -2.6115259144868991e-01  -2.5945978779667156e-01  -2.5966023987543418e-01  -2.6278635382714316e-01  -2.7013256901357435e-01  -2.8248253042195687e-01  -3.0060893029569280e-01  -3.2141133733903887e-01  -3.4909922089623185e-01  -3.5780406851654833e-01  -4.2169280417900418e-01  -4.0957804108990631e-01  -3.4749998104903718e-01  -3.6481758587144031e-01  -3.5430427982669538e-01  -3.3519773508222450e-01  -3.0722103350469232e-01  -2.7223163454675153e-01  -2.3211085637580903e-01  -1.8880904779649033e-01  -1.4423524260586665e-01  -1.0019012952179393e-01  -5.8322443069286738e-02  -2.0097422842284576e-02  1.3229671857059564e-02  4.0637392340066913e-02  6.1358955452870262e-02  7.4898738798715198e-02  8.1042975077201235e-02  7.9863607066559705e-02  7.1714912963676200e-02  5.7223074716086328e-02  3.7269198318820383e-02  1.2965779662251891e-02  -1.4375301570797356e-02  -4.3289019175719430e-02  -7.2228113657477888e-02  -9.9670723383324403e-02  -1.2426859924094552e-01  -1.4501771291183452e-01  -1.6140474029189270e-01  -1.7346946768332913e-01  -1.8174460660254516e-01  -1.8708552996641439e-01  -1.9045056507052308e-01  -1.9270518928244287e-01  -1.9449872802247500e-01  -1.9622366645432382e-01  -1.9803965906525331e-01  -1.9993379418262988e-01  -2.0179132108997747e-01  -2.0345941225725969e-01  -2.0479579914250731e-01  -2.0570083334691999e-01  -2.0613512439981116e-01  -2.0612567728080600e-01  -2.0576320865990350e-01  -2.0519281674613005e-01  -2.0460026562064282e-01  -2.0419632218092942e-01  -2.0420191218879180e-01  -2.0483701381979780e-01  -2.0631625366731576e-01  -2.0885577683825998e-01  -2.1269401404493474e-01  -2.1813622158301949e-01  -2.2560285314024137e-01  -2.3570634114465228e-01  -2.4917014428395140e-01  -2.6682413081608375e-01  -2.8865873990830315e-01  -3.1452659286339335e-01  -3.3965879071128335e-01  -3.6663575414970101e-01  -3.6695966178477701e-01  -4.0957804108990631e-01  -3.8990473335063991e-01  -3.2220964891023957e-01  -3.4046031436810092e-01  -3.3042535483385221e-01  -3.1393160128096731e-01  -2.8821069006025862e-01  -2.5518540634617709e-01  -2.1655117159001155e-01  -1.7420220193072500e-01  -1.3004946330099679e-01  -8.5928344420407921e-02  -4.3533628197243310e-02  -4.3764596403382625e-03  3.0245548715272678e-02  5.9270597109948801e-02  8.1890066437145526e-02  9.7561852013081193e-02  1.0601973478394501e-01  1.0727867647463878e-01  1.0163595461192566e-01  8.9667859053557383e-02  7.2220756544103662e-02  5.0393153066586545e-02  2.5501788731029013e-02  -9.7906983479797700e-04  -2.7516560296936329e-02  -5.2659865110756814e-02  -7.5206878679837927e-02  -9.4357283052106972e-02  -1.0980030433833875e-01  -1.2170058101528390e-01  -1.3058494763442416e-01  -1.3717254455136932e-01  -1.4220538283852199e-01  -1.4632226018501251e-01  -1.4999185852367874e-01  -1.5349882713331639e-01  -1.5696631757385918e-01  -1.6039727482424243e-01  -1.6372026804109510e-01  -1.6683071513039727e-01  -1.6962320332216635e-01  -1.7201424312818578e-01  -1.7395677575960744e-01  -1.7544839720829655e-01  -1.7653506180140777e-01  -1.7731157139939691e-01  -1.7791970226458326e-01  -1.7854464225123479e-01  -1.7941041914272560e-01  -1.8077562546791021e-01  -1.8293113648618675e-01  -1.8620403674193253e-01  -1.9096859435341623e-01  -1.9767498709320935e-01  -2.0686519150713126e-01  -2.1921376948288751e-01  -2.3534629238875171e-01  -2.5581794489573234e-01  -2.7991984574495987e-01  -3.0692545516967518e-01  -3.3066072919633793e-01  -3.5450679610295344e-01  -3.4819581620054652e-01  -3.8990473335063991e-01  -3.6342891514470638e-01  -2.9897855121086764e-01  -3.1501814293169589e-01  -3.0638272897780461e-01  -2.9151134506383486e-01  -2.6802529166712913e-01  -2.3770538875620570e-01  -2.0197700940929178e-01  -1.6258023516047218e-01  -1.2131668425045507e-01  -7.9950582493063749e-02  -4.0125995109143012e-02  -3.3103902838651938e-03  2.9243531671765334e-02  5.6524088066159578e-02  7.7779234014495602e-02  9.2529739163412561e-02  1.0057760799912988e-01  1.0200961777251706e-01  9.7195222386855032e-02  8.6777267103881145e-02  7.1652410988979870e-02  5.2935988419149649e-02  3.1904076275813341e-02  9.9062289040820622e-03  -1.1751419510409599e-02  -3.1940092855963879e-02  -4.9831680735572370e-02  -6.4976361852405420e-02  -7.7308766255789793e-02  -8.7081430187867959e-02  -9.4750462910209499e-02  -1.0085081566500596e-01  -1.0589273946142071e-01  -1.1029499686282108e-01  -1.1435513549093343e-01  -1.1824861535891061e-01  -1.2204629533866293e-01  -1.2574107767674658e-01  -1.2927686266011643e-01  -1.3257543701822458e-01  -1.3555896356596137e-01  -1.3816734815103252e-01  -1.4037071209535687e-01  -1.4217768774896072e-01  -1.4364029857191540e-01  -1.4485614733423202e-01  -1.4596853334480975e-01  -1.4716520367400995e-01  -1.4867654736272037e-01  -1.5077461590505603e-01  -1.5377428434850696e-01  -1.5804029409742160e-01  -1.6399824734760243e-01  -1.7216040966077228e-01  -1.8312027560536631e-01  -1.9756928490291695e-01  -2.1600810912210403e-01  -2.3874216806676349e-01  -2.6440474434385070e-01  -2.9196978645815230e-01  -3.1407426944027367e-01  -3.3587350244785624e-01  -3.2552601134337994e-01  -3.6342891514470638e-01  -3.3116803731795003e-01  -2.8003027330032759e-01  -2.8967098847392841e-01  -2.7973134754766410e-01  -2.6428251712102774e-01  -2.4158422436402441e-01  -2.1283099662757121e-01  -1.7915659047855526e-01  -1.4203400981515779e-01  -1.0304907560899509e-01  -6.3810297490912146e-02  -2.5855742810153289e-02  9.4167170973973278e-03  4.0800377590994093e-02  6.7315520213165336e-02  8.8234033821131416e-02  1.0309570266012988e-01  1.1171772018187709e-01  1.1419765890459269e-01  1.1090886168477956e-01  1.0248572206650294e-01  8.9794788704226969e-02  7.3886575404227051e-02  5.5923900890805893e-02  3.7087050717761992e-02  1.8464542196533935e-02  9.4808124251439824e-04  -1.4844240037896689e-02  -2.8596794407037201e-02  -4.0271880960374914e-02  -5.0043593183841578e-02  -5.8212868720536604e-02  -6.5126517593069588e-02  -7.1114967913273444e-02  -7.6453462973891814e-02  -8.1344446331801989e-02  -8.5915813683840089e-02  -9.0229586511779036e-02  -9.4296455120222833e-02  -9.8092811782901315e-02  -1.0157781479644953e-01  -1.0470894565276309e-01  -1.0745519802532767e-01  -1.0980766577355636e-01  -1.1178760166069379e-01  -1.1345227143762290e-01  -1.1489894505363468e-01  -1.1626746650219805e-01  -1.1774188756528266e-01  -1.1955182820806866e-01  -1.2197474496262446e-01  -1.2534007914834513e-01  -1.3003897464455463e-01  -1.3653532706919336e-01  -1.4539014528634167e-01  -1.5723418747530302e-01  -1.7276436397168349e-01  -1.9233763091658254e-01  -2.1603199847656462e-01  -2.4184897561440599e-01  -2.6874987807554540e-01  -2.8825310289672557e-01  -3.0817209875700463e-01  -2.9334851384467220e-01  -3.3116803731795003e-01  -2.9436186731314440e-01  -2.6659732673586767e-01  -2.6760509365501106e-01  -2.5542165466078387e-01  -2.3846365847158307e-01  -2.1561011665565918e-01  -1.8770982087608512e-01  -1.5568543779571728e-01  -1.2073758442247316e-01  -8.4208257242169196e-02  -4.7498081176577049e-02  -1.1977027876998760e-02  2.1088883207143399e-02  5.0595915634646542e-02  7.5645988044514043e-02  9.5577041380775482e-02  1.0998244569853581e-01  1.1872072030450777e-01  1.2191568578638982e-01  1.1994585194892141e-01  1.1342072621069826e-01  1.0314119882447892e-01  9.0042040618811145e-02  7.5117527228069719e-02  5.9336339448003449e-02  4.3557639151953008e-02  2.8463592878129686e-02  1.4521712132111288e-02  1.9827846551393755e-03  -9.0898745984523792e-03  -1.8771813153295788e-02  -2.7223487942824583e-02  -3.4641990760323017e-02  -4.1224182317328370e-02  -4.7142448617878710e-02  -5.2531623893189279e-02  -5.7484778134356748e-02  -6.2055514770584082e-02  -6.6264752993200698e-02  -7.0110192515439040e-02  -7.3577002633021374e-02  -7.6648538174319159e-02  -7.9316307386548407e-02  -8.1588704455989758e-02  -8.3498365946141156e-02  -8.5108149210486608e-02  -8.6515933996361136e-02  -8.7858487922836181e-02  -8.9314868488694882e-02  -9.1109901301336255e-02  -9.3518971089388364e-02  -9.6874787091549869e-02  -1.0158004565108149e-01  -1.0811903149891067e-01  -1.1708187197328448e-01  -1.2911450741252775e-01  -1.4490188310995991e-01  -1.6464269720941335e-01  -1.8823983584541043e-01  -2.1313596289016090e-01  -2.3860633083477362e-01  -2.5504770180811054e-01  -2.7359566102235933e-01  -2.5426727268976085e-01  -2.9436186731314440e-01  -2.5442484560243622e-01  -2.5855770245382304e-01  -2.4983020676290338e-01  -2.3489741336802317e-01  -2.1575463935282213e-01  -1.9200797720695101e-01  -1.6426516579690573e-01  -1.3326356659242142e-01  -9.9973671171806056e-02  -6.5507635119610663e-02  -3.1047833202516962e-02  2.2279764260382680e-03  3.3214472846954515e-02  6.0936971185098894e-02  8.4597559606910164e-02  1.0360886835993970e-01  1.1761581143522470e-01  1.2650561646551764e-01  1.3040592325629918e-01  1.2967006734810255e-01  1.2484837844443786e-01  1.1664486057531308e-01  1.0586043905156736e-01  9.3326933630924286e-02  7.9839313120686206e-02  6.6095983326779337e-02  5.2656376473247564e-02  3.9921424803305024e-02  2.8136929098343727e-02  1.7414702721316230e-02  7.7637109377954421e-03  -8.7634558587109421e-04  -8.6044154948125683e-03  -1.5533305766946268e-02  -2.1771591472631011e-02  -2.7411967609029766e-02  -3.2525283744128254e-02  -3.7159307742246461e-02  -4.1341186503442422e-02  -4.5082547765211207e-02  -4.8386226571021554e-02  -5.1253731699057302e-02  -5.3692761708403536e-02  -5.5724307421657203e-02  -5.7389091028111260e-02  -5.8753273520731182e-02  -5.9913503736521212e-02  -6.1001526236351418e-02  -6.2188744231805246e-02  -6.3691292933491697e-02  -6.5776840963081118e-02  -6.8773607094382641e-02  -7.3085690585290602e-02  -7.9205009542728022e-02  -8.7735904054008745e-02  -9.9322257603174979e-02  -1.1462710291461828e-01  -1.3369146901497669e-01  -1.5631788590426141e-01  -1.7947493294211608e-01  -2.0304254314853112e-01  -2.1618209461176771e-01  -2.3390167918843319e-01  -2.0974904947205733e-01  -2.5442484560243622e-01  -2.1289172953322819e-01  -2.5493215970714739e-01  -2.3619358698219278e-01  -2.1861016320380372e-01  -1.9721608472570251e-01  -1.7236898622890670e-01  -1.4447958528563068e-01  -1.1416010298206171e-01  -8.2209269622761330e-02  -4.9547694992415341e-02  -1.7161110571330084e-02  1.3960501936787099e-02  4.2881375368652101e-02  6.8772295706616901e-02  9.0953941481428532e-02  1.0892951447160600e-01  1.2240568376435461e-01  1.3130129382899242e-01  1.3574338149555801e-01  1.3605022512312939e-01  1.3270160021324678e-01  1.2629755648591565e-01  1.1750868730681721e-01  1.0702281866774889e-01  9.5494384437934968e-02  8.3502840861253924e-02  7.1524821656846191e-02  5.9921858888926316e-02  4.8942368262707987e-02  3.8734334694992628e-02  2.9364283274664688e-02  2.0838489120938549e-02  1.3123446001669824e-02  6.1637163773279324e-03  -1.0378496116335338e-04  -5.7394477436898761e-03  -1.0794495343601612e-02  -1.5308077564578908e-02  -1.9307375479807563e-02  -2.2810076071010654e-02  -2.5828496645477369e-02  -2.8374720886790931e-02  -3.0466180711680810e-02  -3.2131306649569744e-02  -3.3414983184345666e-02  -3.4383735270641473e-02  -3.5130677358997005e-02  -3.5780428286215610e-02  -3.6494378065550004e-02  -3.7476864369908283e-02  -3.8983510989091176e-02  -4.1332031913270721e-02  -4.4919836269468064e-02  -5.0235980436760377e-02  -5.7886702558807596e-02  -6.8501119634155380e-02  -8.2718561903947524e-02  -1.0043834971182286e-01  -1.2144932739525936e-01  -1.4232736523932379e-01  -1.6378827763855044e-01  -1.7357866592970556e-01  -1.9102088930958014e-01  -1.6171718114954312e-01  -2.1289172953322819e-01  -1.7135861346402018e-01  -2.5449884816124785e-01  -2.2599983101704293e-01  -2.0617850469853088e-01  -1.8273285666791911e-01  -1.5683449921031217e-01  -1.2871895268212638e-01  -9.8908081458934274e-02  -6.8065649801073227e-02  -3.6956871163562444e-02  -6.4003415325122543e-03  2.2781989594162822e-02  4.9813204820856750e-02  7.4005544469413750e-02  9.4797683836427643e-02  1.1178310945422362e-01  1.2472813051340013e-01  1.3357857968107920e-01  1.3845479773547065e-01  1.3963508426810284e-01  1.3752866337094219e-01  1.3264026248028998e-01  1.2552959645068509e-01  1.1676993505639992e-01  1.0691023543998114e-01  9.6444693233162931e-02  8.5792173855842271e-02  7.5286169707698164e-02  6.5174266817354276e-02  5.5624996116760542e-02  4.6739512152472490e-02  3.8565683430650852e-02  3.1112599918040378e-02  2.4364048634830240e-02  1.8289980191554447e-02  1.2855431601499163e-02  8.0266864224508641e-03  3.7747567803191272e-03  7.6455019700134955e-05  -3.0865157863917236e-03  -5.7299878951099946e-03  -7.8707871640841583e-03  -9.5308299135758411e-03  -1.0741528522470598e-02  -1.1548325834576507e-02  -1.2015263793908944e-02  -1.2229653537014407e-02  -1.2307026362888829e-02  -1.2396788970505331e-02  -1.2689126382339797e-02  -1.3424465199435704e-02  -1.4905620995719220e-02  -1.7517221709004091e-02  -2.1737511858811280e-02  -2.8165539442462331e-02  -3.7408594482262705e-02  -5.0088248345002466e-02  -6.5990090851399077e-02  -8.4973690239797298e-02  -1.0328876809707313e-01  -1.2264551406300973e-01  -1.2916731868606796e-01  -1.4684742538549342e-01  -1.1205558014103112e-01  -1.7135861346402018e-01  -1.3142159175331197e-01  -2.5619434060737822e-01  -2.1848883034826200e-01  -1.9694738967397371e-01  -1.7175593357901769e-01  -1.4498357048937721e-01  -1.1669340929045303e-01  -8.7339639570835140e-02  -5.7477279558232397e-02  -2.7744673685482418e-02  1.1798194360015057e-03  2.8619022737761745e-02  5.3936609819208017e-02  7.6573141051138674e-02  9.6076413792292550e-02  1.1212435828318260e-01  1.2453911727607150e-01  1.3329147474182523e-01  1.3849540376523548e-01  1.4039323517277874e-01  1.3933275176950399e-01  1.3573834624655029e-01  1.3007905818106896e-01  1.2283666816004554e-01  1.1447689757461399e-01  1.0542615175207862e-01  9.6055257606392858e-02  8.6670553835182171e-02  7.7511730663145192e-02  6.8755158807092889e-02  6.0521137667954319e-02  5.2883466660372566e-02  4.5879918308874529e-02  3.9522453776969120e-02  3.3806331442788239e-02  2.8717550443623112e-02  2.4238351301246502e-02  2.0350717964592587e-02  1.7038013411015206e-02  1.4284995291055088e-02  1.2076532457640137e-02  1.0395341332709260e-02  9.2190438881566139e-03  8.5167681459529434e-03  8.2454465927882335e-03  8.3458492707628989e-03  8.7382866822267521e-03  9.3177666496985327e-03  9.9481835976576397e-03  1.0454962796435497e-02  1.0614841758074502e-02  1.0142744154920681e-02  8.6709859406099137e-03  5.7375264418147529e-03  7.5637357771633947e-04  -6.8562301231756420e-03  -1.7714989513795472e-02  -3.1526170194399662e-02  -4.8289270254119193e-02  -6.3976611593593358e-02  -8.1377455436492344e-02  -8.4796875594915874e-02  -1.0317583815763606e-01  -6.2587004612669722e-02  -1.3142159175331197e-01  -9.4615421748506498e-02  -2.5924506441870249e-01  -2.1304377476385344e-01  -1.9026331827988260e-01  -1.6362047296888346e-01  -1.3615727001879829e-01  -1.0776590556774773e-01  -7.8850859182218846e-02  -4.9875362223149658e-02  -2.1370688901899679e-02  6.1039441814665666e-03  3.1995230217705790e-02  5.5788166641441747e-02  7.7034942407624499e-02  9.5378869556172627e-02  1.1057203308212590e-01  1.2248564826941707e-01  1.3111255714415601e-01  1.3656184469844293e-01  1.3904618063339935e-01  1.3886312182453206e-01  1.3637218283239891e-01  1.3196986365923352e-01  1.2606494773890370e-01  1.1905618997312596e-01  1.1131404063784317e-01  1.0316739870643661e-01  9.4895685023630244e-02  8.6725915116408245e-02  7.8833993803595043e-02  7.1349204207855177e-02  6.4360777419293927e-02  5.7925495281065879e-02  5.2075418146982397e-02  4.6825036738189066e-02  4.2177350934912441e-02  3.8128593206640381e-02  3.4671485079085324e-02  3.1797068512813199e-02  2.9495248827764789e-02  2.7754250120666846e-02  2.6559199602881452e-02  2.5890043344045183e-02  2.5718952845679023e-02  2.6007315916108914e-02  2.6702321955703157e-02  2.7733043900445689e-02  2.9005786282039585e-02  3.0398254808750011e-02  3.1751957517200100e-02  3.2861505503836333e-02  3.3460809369693915e-02  3.3201289650749741e-02  3.1639882994994505e-02  2.8206473277322772e-02  2.2338234138876728e-02  1.3415143330489031e-02  1.7752244440435402e-03  -1.2765852126755434e-02  -2.5938044176785736e-02  -4.1625912571852670e-02  -4.2171037566075160e-02  -6.1651740455973165e-02  -1.5006473395117353e-02  -9.4615421748506498e-02  -6.2354543921750119e-02  -2.6311617096216794e-01  -2.0921616745939775e-01  -1.8557081821364202e-01  -1.5771591862043216e-01  -1.2970834777784793e-01  -1.0127219051597608e-01  -7.2776439074950253e-02  -4.4604866133330340e-02  -1.7196705824259997e-02  8.9913169397023880e-03  3.3512249522876507e-02  5.5955140915496734e-02  7.5967890055855858e-02  9.3275766439184046e-02  1.0769464733879169e-01  1.1913830489556769e-01  1.2761943506347212e-01  1.3324456590607575e-01  1.3620344187092576e-01  1.3675394876041114e-01  1.3520399622361667e-01  1.3189200980734450e-01  1.2716770354197188e-01  1.2137463984142376e-01  1.1483574207051520e-01  1.0784247979275254e-01  1.