<?xml version="1.0"?>
<VTKFile type="UnstructuredGrid"  version="0.1"  >
<UnstructuredGrid>
<Piece  NumberOfPoints="4225" NumberOfCells="8192">
<Points>
<DataArray  type="Float64"  NumberOfComponents="3"  format="ascii">-1 -1 0  -0.96875 -1 0  -0.9375 -1 0  -0.90625 -1 0  -0.875 -1 0  -0.84375 -1 0  -0.8125 -1 0  -0.78125 -1 0  -0.75 -1 0  -0.71875 -1 0  -0.6875 -1 0  -0.65625 -1 0  -0.625 -1 0  -0.59375 -1 0  -0.5625 -1 0  -0.53125 -1 0  -0.5 -1 0  -0.46875 -1 0  -0.4375 -1 0  -0.40625 -1 0  -0.375 -1 0  -0.34375 -1 0  -0.3125 -1 0  -0.28125 -1 0  -0.25 -1 0  -0.21875 -1 0  -0.1875 -1 0  -0.15625 -1 0  -0.125 -1 0  -0.09375 -1 0  -0.0625 -1 0  -0.03125 -1 0  0 -1 0  0.03125 -1 0  0.0625 -1 0  0.09375 -1 0  0.125 -1 0  0.15625 -1 0  0.1875 -1 0  0.21875 -1 0  0.25 -1 0  0.28125 -1 0  0.3125 -1 0  0.34375 -1 0  0.375 -1 0  0.40625 -1 0  0.4375 -1 0  0.46875 -1 0  0.5 -1 0  0.53125 -1 0  0.5625 -1 0  0.59375 -1 0  0.625 -1 0  0.65625 -1 0  0.6875 -1 0  0.71875 -1 0  0.75 -1 0  0.78125 -1 0  0.8125 -1 0  0.84375 -1 0  0.875 -1 0  0.90625 -1 0  0.9375 -1 0  0.96875 -1 0  1 -1 0  -1 -0.96875 0  -0.96875 -0.96875 0  -0.9375 -0.96875 0  -0.90625 -0.96875 0  -0.875 -0.96875 0  -0.84375 -0.96875 0  -0.8125 -0.96875 0  -0.78125 -0.96875 0  -0.75 -0.96875 0  -0.71875 -0.96875 0  -0.6875 -0.96875 0  -0.65625 -0.96875 0  -0.625 -0.96875 0  -0.59375 -0.96875 0  -0.5625 -0.96875 0  -0.53125 -0.96875 0  -0.5 -0.96875 0  -0.46875 -0.96875 0  -0.4375 -0.96875 0  -0.40625 -0.96875 0  -0.375 -0.96875 0  -0.34375 -0.96875 0  -0.3125 -0.96875 0  -0.28125 -0.96875 0  -0.25 -0.96875 0  -0.21875 -0.96875 0  -0.1875 -0.96875 0  -0.15625 -0.96875 0  -0.125 -0.96875 0  -0.09375 -0.96875 0  -0.0625 -0.96875 0  -0.03125 -0.96875 0  0 -0.96875 0  0.03125 -0.96875 0  0.0625 -0.96875 0  0.09375 -0.96875 0  0.125 -0.96875 0  0.15625 -0.96875 0  0.1875 -0.96875 0  0.21875 -0.96875 0  0.25 -0.96875 0  0.28125 -0.96875 0  0.3125 -0.96875 0  0.34375 -0.96875 0  0.375 -0.96875 0  0.40625 -0.96875 0  0.4375 -0.96875 0  0.46875 -0.96875 0  0.5 -0.96875 0  0.53125 -0.96875 0  0.5625 -0.96875 0  0.59375 -0.96875 0  0.625 -0.96875 0  0.65625 -0.96875 0  0.6875 -0.96875 0  0.71875 -0.96875 0  0.75 -0.96875 0  0.78125 -0.96875 0  0.8125 -0.96875 0  0.84375 -0.96875 0  0.875 -0.96875 0  0.90625 -0.96875 0  0.9375 -0.96875 0  0.96875 -0.96875 0  1 -0.96875 0  -1 -0.9375 0  -0.96875 -0.9375 0  -0.9375 -0.9375 0  -0.90625 -0.9375 0  -0.875 -0.9375 0  -0.84375 -0.9375 0  -0.8125 -0.9375 0  -0.78125 -0.9375 0  -0.75 -0.9375 0  -0.71875 -0.9375 0  -0.6875 -0.9375 0  -0.65625 -0.9375 0  -0.625 -0.9375 0  -0.59375 -0.9375 0  -0.5625 -0.9375 0  -0.53125 -0.9375 0  -0.5 -0.9375 0  -0.46875 -0.9375 0  -0.4375 -0.9375 0  -0.40625 -0.9375 0  -0.375 -0.9375 0  -0.34375 -0.9375 0  -0.3125 -0.9375 0  -0.28125 -0.9375 0  -0.25 -0.9375 0  -0.21875 -0.9375 0  -0.1875 -0.9375 0  -0.15625 -0.9375 0  -0.125 -0.9375 0  -0.09375 -0.9375 0  -0.0625 -0.9375 0  -0.03125 -0.9375 0  0 -0.9375 0  0.03125 -0.9375 0  0.0625 -0.9375 0  0.09375 -0.9375 0  0.125 -0.9375 0  0.15625 -0.9375 0  0.1875 -0.9375 0  0.21875 -0.9375 0  0.25 -0.9375 0  0.28125 -0.9375 0  0.3125 -0.9375 0  0.34375 -0.9375 0  0.375 -0.9375 0  0.40625 -0.9375 0  0.4375 -0.9375 0  0.46875 -0.9375 0  0.5 -0.9375 0  0.53125 -0.9375 0  0.5625 -0.9375 0  0.59375 -0.9375 0  0.625 -0.9375 0  0.65625 -0.9375 0  0.6875 -0.9375 0  0.71875 -0.9375 0  0.75 -0.9375 0  0.78125 -0.9375 0  0.8125 -0.9375 0  0.84375 -0.9375 0  0.875 -0.9375 0  0.90625 -0.9375 0  0.9375 -0.9375 0  0.96875 -0.9375 0  1 -0.9375 0  -1 -0.90625 0  -0.96875 -0.90625 0  -0.9375 -0.90625 0  -0.90625 -0.90625 0  -0.875 -0.90625 0  -0.84375 -0.90625 0  -0.8125 -0.90625 0  -0.78125 -0.90625 0  -0.75 -0.90625 0  -0.71875 -0.90625 0  -0.6875 -0.90625 0  -0.65625 -0.90625 0  -0.625 -0.90625 0  -0.59375 -0.90625 0  -0.5625 -0.90625 0  -0.53125 -0.90625 0  -0.5 -0.90625 0  -0.46875 -0.90625 0  -0.4375 -0.90625 0  -0.40625 -0.90625 0  -0.375 -0.90625 0  -0.34375 -0.90625 0  -0.3125 -0.90625 0  -0.28125 -0.90625 0  -0.25 -0.90625 0  -0.21875 -0.90625 0  -0.1875 -0.90625 0  -0.15625 -0.90625 0  -0.125 -0.90625 0  -0.09375 -0.90625 0  -0.0625 -0.90625 0  -0.03125 -0.90625 0  0 -0.90625 0  0.03125 -0.90625 0  0.0625 -0.90625 0  0.09375 -0.90625 0  0.125 -0.90625 0  0.15625 -0.90625 0  0.1875 -0.90625 0  0.21875 -0.90625 0  0.25 -0.90625 0  0.28125 -0.90625 0  0.3125 -0.90625 0  0.34375 -0.90625 0  0.375 -0.90625 0  0.40625 -0.90625 0  0.4375 -0.90625 0  0.46875 -0.90625 0  0.5 -0.90625 0  0.53125 -0.90625 0  0.5625 -0.90625 0  0.59375 -0.90625 0  0.625 -0.90625 0  0.65625 -0.90625 0  0.6875 -0.90625 0  0.71875 -0.90625 0  0.75 -0.90625 0  0.78125 -0.90625 0  0.8125 -0.90625 0  0.84375 -0.90625 0  0.875 -0.90625 0  0.90625 -0.90625 0  0.9375 -0.90625 0  0.96875 -0.90625 0  1 -0.90625 0  -1 -0.875 0  -0.96875 -0.875 0  -0.9375 -0.875 0  -0.90625 -0.875 0  -0.875 -0.875 0  -0.84375 -0.875 0  -0.8125 -0.875 0  -0.78125 -0.875 0  -0.75 -0.875 0  -0.71875 -0.875 0  -0.6875 -0.875 0  -0.65625 -0.875 0  -0.625 -0.875 0  -0.59375 -0.875 0  -0.5625 -0.875 0  -0.53125 -0.875 0  -0.5 -0.875 0  -0.46875 -0.875 0  -0.4375 -0.875 0  -0.40625 -0.875 0  -0.375 -0.875 0  -0.34375 -0.875 0  -0.3125 -0.875 0  -0.28125 -0.875 0  -0.25 -0.875 0  -0.21875 -0.875 0  -0.1875 -0.875 0  -0.15625 -0.875 0  -0.125 -0.875 0  -0.09375 -0.875 0  -0.0625 -0.875 0  -0.03125 -0.875 0  0 -0.875 0  0.03125 -0.875 0  0.0625 -0.875 0  0.09375 -0.875 0  0.125 -0.875 0  0.15625 -0.875 0  0.1875 -0.875 0  0.21875 -0.875 0  0.25 -0.875 0  0.28125 -0.875 0  0.3125 -0.875 0  0.34375 -0.875 0  0.375 -0.875 0  0.40625 -0.875 0  0.4375 -0.875 0  0.46875 -0.875 0  0.5 -0.875 0  0.53125 -0.875 0  0.5625 -0.875 0  0.59375 -0.875 0  0.625 -0.875 0  0.65625 -0.875 0  0.6875 -0.875 0  0.71875 -0.875 0  0.75 -0.875 0  0.78125 -0.875 0  0.8125 -0.875 0  0.84375 -0.875 0  0.875 -0.875 0  0.90625 -0.875 0  0.9375 -0.875 0  0.96875 -0.875 0  1 -0.875 0  -1 -0.84375 0  -0.96875 -0.84375 0  -0.9375 -0.84375 0  -0.90625 -0.84375 0  -0.875 -0.84375 0  -0.84375 -0.84375 0  -0.8125 -0.84375 0  -0.78125 -0.84375 0  -0.75 -0.84375 0  -0.71875 -0.84375 0  -0.6875 -0.84375 0  -0.65625 -0.84375 0  -0.625 -0.84375 0  -0.59375 -0.84375 0  -0.5625 -0.84375 0  -0.53125 -0.84375 0  -0.5 -0.84375 0  -0.46875 -0.84375 0  -0.4375 -0.84375 0  -0.40625 -0.84375 0  -0.375 -0.84375 0  -0.34375 -0.84375 0  -0.3125 -0.84375 0  -0.28125 -0.84375 0  -0.25 -0.84375 0  -0.21875 -0.84375 0  -0.1875 -0.84375 0  -0.15625 -0.84375 0  -0.125 -0.84375 0  -0.09375 -0.84375 0  -0.0625 -0.84375 0  -0.03125 -0.84375 0  0 -0.84375 0  0.03125 -0.84375 0  0.0625 -0.84375 0  0.09375 -0.84375 0  0.125 -0.84375 0  0.15625 -0.84375 0  0.1875 -0.84375 0  0.21875 -0.84375 0  0.25 -0.84375 0  0.28125 -0.84375 0  0.3125 -0.84375 0  0.34375 -0.84375 0  0.375 -0.84375 0  0.40625 -0.84375 0  0.4375 -0.84375 0  0.46875 -0.84375 0  0.5 -0.84375 0  0.53125 -0.84375 0  0.5625 -0.84375 0  0.59375 -0.84375 0  0.625 -0.84375 0  0.65625 -0.84375 0  0.6875 -0.84375 0  0.71875 -0.84375 0  0.75 -0.84375 0  0.78125 -0.84375 0  0.8125 -0.84375 0  0.84375 -0.84375 0  0.875 -0.84375 0  0.90625 -0.84375 0  0.9375 -0.84375 0  0.96875 -0.84375 0  1 -0.84375 0  -1 -0.8125 0  -0.96875 -0.8125 0  -0.9375 -0.8125 0  -0.90625 -0.8125 0  -0.875 -0.8125 0  -0.84375 -0.8125 0  -0.8125 -0.8125 0  -0.78125 -0.8125 0  -0.75 -0.8125 0  -0.71875 -0.8125 0  -0.6875 -0.8125 0  -0.65625 -0.8125 0  -0.625 -0.8125 0  -0.59375 -0.8125 0  -0.5625 -0.8125 0  -0.53125 -0.8125 0  -0.5 -0.8125 0  -0.46875 -0.8125 0  -0.4375 -0.8125 0  -0.40625 -0.8125 0  -0.375 -0.8125 0  -0.34375 -0.8125 0  -0.3125 -0.8125 0  -0.28125 -0.8125 0  -0.25 -0.8125 0  -0.21875 -0.8125 0  -0.1875 -0.8125 0  -0.15625 -0.8125 0  -0.125 -0.8125 0  -0.09375 -0.8125 0  -0.0625 -0.8125 0  -0.03125 -0.8125 0  0 -0.8125 0  0.03125 -0.8125 0  0.0625 -0.8125 0  0.09375 -0.8125 0  0.125 -0.8125 0  0.15625 -0.8125 0  0.1875 -0.8125 0  0.21875 -0.8125 0  0.25 -0.8125 0  0.28125 -0.8125 0  0.3125 -0.8125 0  0.34375 -0.8125 0  0.375 -0.8125 0  0.40625 -0.8125 0  0.4375 -0.8125 0  0.46875 -0.8125 0  0.5 -0.8125 0  0.53125 -0.8125 0  0.5625 -0.8125 0  0.59375 -0.8125 0  0.625 -0.8125 0  0.65625 -0.8125 0  0.6875 -0.8125 0  0.71875 -0.8125 0  0.75 -0.8125 0  0.78125 -0.8125 0  0.8125 -0.8125 0  0.84375 -0.8125 0  0.875 -0.8125 0  0.90625 -0.8125 0  0.9375 -0.8125 0  0.96875 -0.8125 0  1 -0.8125 0  -1 -0.78125 0  -0.96875 -0.78125 0  -0.9375 -0.78125 0  -0.90625 -0.78125 0  -0.875 -0.78125 0  -0.84375 -0.78125 0  -0.8125 -0.78125 0  -0.78125 -0.78125 0  -0.75 -0.78125 0  -0.71875 -0.78125 0  -0.6875 -0.78125 0  -0.65625 -0.78125 0  -0.625 -0.78125 0  -0.59375 -0.78125 0  -0.5625 -0.78125 0  -0.53125 -0.78125 0  -0.5 -0.78125 0  -0.46875 -0.78125 0  -0.4375 -0.78125 0  -0.40625 -0.78125 0  -0.375 -0.78125 0  -0.34375 -0.78125 0  -0.3125 -0.78125 0  -0.28125 -0.78125 0  -0.25 -0.78125 0  -0.21875 -0.78125 0  -0.1875 -0.78125 0  -0.15625 -0.78125 0  -0.125 -0.78125 0  -0.09375 -0.78125 0  -0.0625 -0.78125 0  -0.03125 -0.78125 0  0 -0.78125 0  0.03125 -0.78125 0  0.0625 -0.78125 0  0.09375 -0.78125 0  0.125 -0.78125 0  0.15625 -0.78125 0  0.1875 -0.78125 0  0.21875 -0.78125 0  0.25 -0.78125 0  0.28125 -0.78125 0  0.3125 -0.78125 0  0.34375 -0.78125 0  0.375 -0.78125 0  0.40625 -0.78125 0  0.4375 -0.78125 0  0.46875 -0.78125 0  0.5 -0.78125 0  0.53125 -0.78125 0  0.5625 -0.78125 0  0.59375 -0.78125 0  0.625 -0.78125 0  0.65625 -0.78125 0  0.6875 -0.78125 0  0.71875 -0.78125 0  0.75 -0.78125 0  0.78125 -0.78125 0  0.8125 -0.78125 0  0.84375 -0.78125 0  0.875 -0.78125 0  0.90625 -0.78125 0  0.9375 -0.78125 0  0.96875 -0.78125 0  1 -0.78125 0  -1 -0.75 0  -0.96875 -0.75 0  -0.9375 -0.75 0  -0.90625 -0.75 0  -0.875 -0.75 0  -0.84375 -0.75 0  -0.8125 -0.75 0  -0.78125 -0.75 0  -0.75 -0.75 0  -0.71875 -0.75 0  -0.6875 -0.75 0  -0.65625 -0.75 0  -0.625 -0.75 0  -0.59375 -0.75 0  -0.5625 -0.75 0  -0.53125 -0.75 0  -0.5 -0.75 0  -0.46875 -0.75 0  -0.4375 -0.75 0  -0.40625 -0.75
[...]
<PointData  Scalars="f_15"> 
<DataArray  type="Float64"  Name="f_15"  format="ascii">-4.7611279604787532e-01  -4.7153860911162843e-01  -4.5799183174161401e-01  -4.3599305899504154e-01  -4.0638769137150776e-01  -3.7031344654590370e-01  -3.2915663751620822e-01  -2.8449889737242728e-01  -2.3805639802393760e-01  -1.9161389867544798e-01  -1.4695615853166713e-01  -1.0579934950197144e-01  -6.9725104676367486e-02  -4.0119737052833761e-02  -1.8120964306261311e-02  -4.5741869362469316e-03  0.0000000000000000e+00  -4.5741869362469316e-03  -1.8120964306261332e-02  -4.0119737052833795e-02  -6.9725104676367514e-02  -1.0579934950197149e-01  -1.4695615853166727e-01  -1.9161389867544809e-01  -2.3805639802393766e-01  -2.8449889737242728e-01  -3.2915663751620816e-01  -3.7031344654590387e-01  -4.0638769137150776e-01  -4.3599305899504154e-01  -4.5799183174161406e-01  -4.7153860911162843e-01  -4.7611279604787532e-01  -4.7153860911162843e-01  -4.5799183174161406e-01  -4.3599305899504154e-01  -4.0638769137150776e-01  -3.7031344654590387e-01  -3.2915663751620816e-01  -2.8449889737242728e-01  -2.3805639802393766e-01  -1.9161389867544809e-01  -1.4695615853166727e-01  -1.0579934950197149e-01  -6.9725104676367514e-02  -4.0119737052833795e-02  -1.8120964306261332e-02  -4.5741869362469316e-03  0.0000000000000000e+00  -4.5741869362469316e-03  -1.8120964306261311e-02  -4.0119737052833761e-02  -6.9725104676367486e-02  -1.0579934950197144e-01  -1.4695615853166713e-01  -1.9161389867544798e-01  -2.3805639802393760e-01  -2.8449889737242728e-01  -3.2915663751620822e-01  -3.7031344654590370e-01  -4.0638769137150776e-01  -4.3599305899504154e-01  -4.5799183174161401e-01  -4.7153860911162843e-01  -4.7611279604787532e-01  -4.7153860911162843e-01  -3.4806291725847799e-01  -2.8742088815134764e-01  -2.0539435454176505e-01  -1.1409288938533861e-01  -1.7129251491722550e-02  8.2542221366202831e-02  1.8244584580417433e-01  2.8031166099889604e-01  3.7397342623408913e-01  4.6134535912014812e-01  5.4044586040240050e-01  6.0944754221369868e-01  6.6673881141264402e-01  7.1098634911324610e-01  7.4119071912079282e-01  7.5672987012440074e-01  7.5738691236776468e-01  7.4336011341220054e-01  7.1525390147286172e-01  6.7405081900776653e-01  6.2106519465225674e-01  5.5788077029310401e-01  4.8627580384144448e-01  4.0814086157908219e-01  3.2539549104102644e-01  2.3991047915556657e-01  1.5344149020545778e-01  6.7578081346556684e-02  -1.6290557599276615e-02  -9.6994265158413653e-02  -1.7358781172304175e-01  -2.4534737781890800e-01  -3.1176023414818332e-01  -3.7250910440962748e-01  -4.2745149789459169e-01  -4.7659399850427475e-01  -5.2006171586746719e-01  -5.5806423693114260e-01  -5.9086031057581712e-01  -6.1872448194349960e-01  -6.4191881766810055e-01  -6.6067256788455264e-01  -6.7517127333532778e-01  -6.8555564831910187e-01  -6.9192890238085014e-01  -6.9437022307405627e-01  -6.9295115435278598e-01  -6.8775165978620301e-01  -6.7887277755050524e-01  -6.6644395916915489e-01  -6.5062412352957377e-01  -6.3159773932432128e-01  -6.0956682321020916e-01  -5.8474834366957884e-01  -5.5736356661019903e-01  -5.2769364741268754e-01  -4.9598535979700137e-01  -4.6299139396351163e-01  -4.2872198519563076e-01  -3.9742401983922188e-01  -3.6465918240729372e-01  -3.5988881199430311e-01  -3.2585503857576881e-01  -4.7153860911162843e-01  -4.5799183174161401e-01  -3.4610755409599103e-01  -3.1877562240395552e-01  -2.6094954041284057e-01  -1.9857302901073054e-01  -1.3173033235548159e-01  -6.2645390850026156e-02  6.8301472174134726e-03  7.5000136196939945e-02  1.4028476366076648e-01  2.0119938693976022e-01  2.5636055954947040e-01  3.0451099747701044e-01  3.4455559367118571e-01  3.7560103166038417e-01  3.9699270757139449e-01  4.0834361602354952e-01  4.0955147365428807e-01  4.0080150963526701e-01  3.8255408762556081e-01  3.5551754094345900e-01  3.2060835601594512e-01  2.7890197124765470e-01  2.3157878634565351e-01  1.7987031658989200e-01  1.2501041188513956e-01  6.8195186184477938e-02  1.0553642167508278e-02  -4.6871213846068759e-02  -1.0313271565442989e-01  -1.5738539648650191e-01  -2.0888749685486882e-01  -2.5700346108540995e-01  -3.0120758238906042e-01  -3.4108864607531136e-01  -3.7635465015134517e-01  -4.0683619911891616e-01  -4.3248740708865557e-01  -4.5338328769095187e-01  -4.6971313705851730e-01  -4.8176943822025264e-01  -4.8993219909801689e-01  -4.9464855303179567e-01  -4.9640799556504606e-01  -4.9571390508012536e-01  -4.9305294421609380e-01  -4.8886441174517103e-01  -4.8351244813800415e-01  -4.7726397082910454e-01  -4.7027529111585409e-01  -4.6258948484337864e-01  -4.5414573862725865e-01  -4.4480105310617507e-01  -4.3436189553256283e-01  -4.2263026028260775e-01  -4.0944127061924451e-01  -3.9477044552560797e-01  -3.7864645409049241e-01  -3.6179821371009996e-01  -3.4402687732508280e-01  -3.3022560282438373e-01  -3.1262142720302616e-01  -3.2698392800668541e-01  -2.7840148924601060e-01  -4.5799183174161401e-01  -4.3599305899504154e-01  -3.5969446484891154e-01  -3.1898175268007023e-01  -2.5751054225837688e-01  -1.9355691111185006e-01  -1.2524606391200049e-01  -5.4923953037549295e-02  1.5790304136482740e-02  8.5314606119965108e-02  1.5212931091637974e-01  2.1476882149732224e-01  2.7183737731822982e-01  3.2204143146825098e-01  3.6423289388968877e-01  3.9745648566777270e-01  4.2099447506881305e-01  4.3440288249108228e-01  4.3753439795262999e-01  4.3054496636023726e-01  4.1388275601471375e-01  3.8826019632023423e-01  3.5461152255500017e-01  3.1403985976657350e-01  2.6775887354639838e-01  2.1703441560674219e-01  1.6313110841933570e-01  1.0726767490036662e-01  5.0583101196274745e-02  -5.8861002710456044e-03  -6.1218827321897581e-02  -1.1461482512133035e-01  -1.6539521516728894e-01  -2.1300039297855042e-01  -2.5698682039083964e-01  -2.9702340586407799e-01  -3.3288742506760077e-01  -3.6445950135801192e-01  -3.9171699757608319e-01  -4.1472531658423156e-01  -4.3362682893446486e-01  -4.4862751193145467e-01  -4.5998163360209321e-01  -4.6797514138115304e-01  -4.7290855681290966e-01  -4.7508035895940570e-01  -4.7477183349919672e-01  -4.7223439091351621e-01  -4.6768016051989553e-01  -4.6127655725970229e-01  -4.5314520695068250e-01  -4.4336554913441867e-01  -4.3198305290577849e-01  -4.1902266449446973e-01  -4.0450563076430490e-01  -3.8847764858277473e-01  -3.7102232178236977e-01  -3.5235901769189881e-01  -3.3269276125565578e-01  -3.1297530050636785e-01  -2.9274173635716899e-01  -2.7764349136859418e-01  -2.5595096008401153e-01  -2.7260286919264265e-01  -1.9310663668939249e-01  -4.3599305899504154e-01  -4.0638769137150776e-01  -3.8597570476676790e-01  -3.3155797461835246e-01  -2.7374535979732378e-01  -2.1358361271284962e-01  -1.5087969572098328e-01  -8.7333351115737617e-02  -2.4110713146493823e-02  3.7521618898151705e-02  9.6345987593419988e-02  1.5119708908059884e-01  2.0098412947632854e-01  2.4471725836378261e-01  2.8153762870425036e-01  3.1074782723078759e-01  3.3183907602927770e-01  3.4451191859242669e-01  3.4868773498386019e-01  3.4450952888459357e-01  3.3233152427600615e-01  3.1269842270364723e-01  2.8631612905833181e-01  2.5401664644562255e-01  2.1672014511777724e-01  1.7539726431051225e-01  1.3103418992324722e-01  8.4602384881813764e-02  3.7033911596612568e-02  -1.0797499243626314e-02  -5.8090196621093083e-02  -1.0412408461441712e-01  -1.4826685918555774e-01  -1.8997788056540368e-01  -2.2881026173891658e-01  -2.6441143997533928e-01  -2.9652219670010221e-01  -3.2497398452796472e-01  -3.4968433938502352e-01  -3.7065028174903863e-01  -3.8793967993421991e-01  -4.0168075233182693e-01  -4.1204995553603685e-01  -4.1925868969083768e-01  -4.2353929268659835e-01  -4.2513099094490636e-01  -4.2426650077682004e-01  -4.2116015074681507e-01  -4.1599838089865571e-01  -4.0893353186489656e-01  -4.0008166011769170e-01  -3.8952503120108312e-01  -3.7731943760983677e-01  -3.6350707143296296e-01  -3.4813244255732451e-01  -3.3127017550611926e-01  -3.1303215621200059e-01  -2.9367217926639111e-01  -2.7337910258595244e-01  -2.5317207627800592e-01  -2.3215949186163329e-01  -2.1678540057073584e-01  -1.9122832850814500e-01  -2.1086390600680038e-01  -1.0259528855470837e-01  -4.0638769137150776e-01  -3.7031344654590370e-01  -4.1742421838173172e-01  -3.4733149574529260e-01  -2.9097311601238829e-01  -2.3144153963265005e-01  -1.7111044307331830e-01  -1.1064799865835492e-01  -5.0964322533488128e-02  6.9375720379452862e-03  6.2062360860188813e-02  1.1343456472784651e-01  1.6012914926537561e-01  2.0129924144316746e-01  2.3620485082748505e-01  2.6424073229053280e-01  2.8496118588136454e-01  2.9809924288509465e-01  3.0357816419662659e-01  3.0151373047460955e-01  2.9220690187131004e-01  2.7612726632899121e-01  2.5388880658937019e-01  2.2622008439044544e-01  1.9393149689511271e-01  1.5788216222986551e-01  1.1894881228694042e-01  7.7998391511679546e-02  3.5865435657424116e-02  -6.6655064049238140e-03  -4.8872677303448082e-02  -9.0105854322656012e-02  -1.2979187644936868e-01  -1.6743775126873525e-01  -2.0263195400037096e-01  -2.3504424569260593e-01  -2.6442416497845589e-01  -2.9059811607250963e-01  -3.1346500215208389e-01  -3.3299028083312965e-01  -3.4919851168118438e-01  -3.6216445904714106e-01  -3.7200306487390572e-01  -3.7885859440448649e-01  -3.8289350788292370e-01  -3.8427754266477065e-01  -3.8317770898994624e-01  -3.7974977340616578e-01  -3.7413193747898299e-01  -3.6644119026347260e-01  -3.5677283497220819e-01  -3.4520343808666765e-01  -3.3179722160118308e-01  -3.1661649294105615e-01  -2.9973333102126154e-01  -2.8125281328318402e-01  -2.6130924491350915e-01  -2.4017548848966544e-01  -2.1799350159108488e-01  -1.9582699594528499e-01  -1.7229654941786607e-01  -1.5478461730823009e-01  -1.2321889194026107e-01  -1.4458769523093745e-01  -6.2776356272131722e-03  -3.7031344654590370e-01  -3.2915663751620822e-01  -4.5030869966140441e-01  -3.6456721158611360e-01  -3.1042418166193170e-01  -2.5181559330794101e-01  -1.9397859665655251e-01  -1.3667731485717852e-01  -8.0674836127557659e-02  -2.6718266287497842e-02  2.4402224673000437e-02  7.1900915481948630e-02  1.1502947577057743e-01  1.5310461040108461e-01  1.8553362041750368e-01  2.1183716075997167e-01  2.3166811313708927e-01  2.4482539736611086e-01  2.5126153880708629e-01  2.5108340511121496e-01  2.4454592854088958e-01  2.3203941045955459e-01  2.1407138117759891e-01  1.9124455397750134e-01  1.6423248552947589e-01  1.3375470374965562e-01  1.0055275818566357e-01  6.5368434890164681e-02  2.8924881042537591e-02  -8.0889543874484663e-03  -4.5030574427910412e-02  -8.1313114443314322e-02  -1.1641183670516542e-01  -1.4986835884405503e-01  -1.8129295575979179e-01  -2.1036521373270056e-01  -2.3683315362456989e-01  -2.6051093823766858e-01  -2.8127515157104954e-01  -2.9905975224998926e-01  -3.1384973140556449e-01  -3.2567370625917896e-01  -3.3459561472382476e-01  -3.4070590487121299e-01  -3.4411252870870951e-01  -3.4493227030823725e-01  -3.4328280414819307e-01  -3.3927606732155741e-01  -3.3301332675658463e-01  -3.2458245541487202e-01  -3.1405763380368545e-01  -3.0150181540782400e-01  -2.8697173216124927e-01  -2.7052626047086353e-01  -2.5223476145323015e-01  -2.3219732918968186e-01  -2.1053186086501566e-01  -1.8749158871619936e-01  -1.6313312274885589e-01  -1.3854839564271759e-01  -1.1183382489667335e-01  -9.1450914383521972e-02  -5.2913579112899942e-02  -7.5646924024914436e-02  9.2608661181617064e-02  -3.2915663751620822e-01  -2.8449889737242728e-01  -4.8287385675992095e-01  -3.8171483022364022e-01  -3.3034162649747989e-01  -2.7243551571972985e-01  -2.1661306429197857e-01  -1.6180446479784874e-01  -1.0868944565668194e-01  -5.7805498976959226e-02  -9.7787513257112275e-03  3.4761152576414690e-02  7.5207053833959286e-02  1.1100187392475397e-01  1.4166194133542215e-01  1.6679690202669820e-01  1.8612583569199426e-01  1.9948887961702197e-01  2.0685372919689141e-01  2.0831659077308845e-01  2.0409755339578681e-01  1.9453075434244180e-01  1.8005012568332543e-01  1.6117182067373131e-01  1.3847460544328641e-01  1.1257953774710908e-01  8.4130141144937956e-02  5.3774061035305618e-02  2.2146886075009406e-02  -1.0141482982757017e-02  -4.2517823155817216e-02  -7.4454045341297376e-02  -1.0547335693827450e-01  -1.3515440753224064e-01  -1.6313368193529865e-01  -1.8910634620600486e-01  -2.1282569248548386e-01  -2.3410127729623750e-01  -2.5279583004385736e-01  -2.6882100688457655e-01  -2.8213210812728234e-01  -2.9272191121784980e-01  -3.0061384476130548e-01  -3.0585476959661256e-01  -3.0850769848115511e-01  -3.0864480871712480e-01  -3.0634114377115862e-01  -3.0166936631329394e-01  -2.9469593625144425e-01  -2.8547898610320477e-01  -2.7406811906520756e-01  -2.6050626424522116e-01  -2.4483339732835585e-01  -2.2709287710174769e-01  -2.0733676920272795e-01  -1.8564346772062493e-01  -1.6209657038475631e-01  -1.3691233585095400e-01  -1.1004627056700762e-01  -8.2617661002609241e-02  -5.2184420445528373e-02  -2.8391911757183606e-02  1.7775324430511392e-02  -6.0646043240292560e-03  1.9165819825469174e-01  -2.8449889737242728e-01  -2.3805639802393760e-01  -5.1426898016237632e-01  -3.9790320495181913e-01  -3.4992763883297839e-01  -2.9277482711217112e-01  -2.3884792470527988e-01  -1.8624514944120038e-01  -1.3564420794629178e-01  -8.7419867301539778e-02  -4.2068833785032470e-02  -9.1508050575232891e-05  3.8024077689654497e-02  7.1829550445129120e-02  1.0093668500226573e-01  1.2503463671160234e-01  1.4390340426144838e-01  1.5742326200381448e-01  1.6557990951803600e-01  1.6846512973816299e-01  1.6627309872045604e-01  1.5929263318178910e-01  1.4789605369558212e-01  1.3252541193862277e-01  1.1367707674990735e-01  9.1885573701698961e-02  6.7707620830844348e-02  4.1707057077868870e-02  1.4441261395004143e-02  -1.3550621549079730e-02  -4.1757457626581812e-02  -6.9703909910690739e-02  -9.6956321576442211e-02  -1.2312684599234204e-01  -1.4787599442621960e-01  -1.7091373689251838e-01  -1.9199930663235432e-01  -2.1093978499532298e-01  -2.2758759555366012e-01  -2.4183697576174321e-01  -2.5361958865304185e-01  -2.6289939002734031e-01  -2.6966699112151682e-01  -2.7393370354768642e-01  -2.7572558472180614e-01  -2.7507772067753561e-01  -2.7202909463856306e-01  -2.6661828673889804e-01  -2.5888030226183451e-01  -2.4884469943769982e-01  -2.3653518053519584e-01  -2.2197071457247769e-01  -2.0516797807669720e-01  -1.8614589955963609e-01  -1.6492842282311118e-01  -1.4156016102231564e-01  -1.1607838578361072e-01  -8.8651311480959796e-02  -5.9126332008894826e-02  -2.8649734542065347e-02  5.7573489179289792e-03  3.3215411223463762e-02  8.7287328350439328e-02  6.2487051421534802e-02  2.8865335462025715e-01  -2.3805639802393760e-01  -1.9161389867544798e-01  -5.4404256340287827e-01  -4.1268650271178309e-01  -3.6864870371201403e-01  -3.1228893617617359e-01  -2.6014751957363524e-01  -2.0948158396447730e-01  -1.6103741403975863e-01  -1.1506219360957215e-01  -7.1955508526516776e-02  -3.2114708170988826e-02  4.0689827690006796e-03  3.6236409509122151e-02  6.4077774792420925e-02  8.7347461986594779e-02  1.0587530740979546e-01  1.1957445770283849e-01  1.2844561120915043e-01  1.3257766634803944e-01  1.3214483398456620e-01  1.2740056864104726e-01  1.1866873438324055e-01  1.0633267560453115e-01  9.0822840412817962e-02  7.2603735990709767e-02  5.2160854148738021e-02  2.9988199348320470e-02  6.5768403362192673e-03  -1.7595163689418256e-02  -4.2071311808701786e-02  -6.6423607752581965e-02  -9.0257939295922920e-02  -1.1321796672281959e-01  -1.3498762013428867e-01  -1.5529232617077934e-01  -1.7389904949725621e-01  -1.9061526903503409e-01  -2.0528696065569807e-01  -2.1779571930809549e-01  -2.2805510959325923e-01  -2.3600642506341810e-01  -2.4161398992254809e-01  -2.4486024293067141e-01  -2.4574077380614143e-01  -2.4425959357441973e-01  -2.4042482371589780e-01  -2.3424506475028167e-01  -2.2572659173930457e-01  -2.1487156063602400e-01  -2.0167726252101706e-01  -1.8613653655141801e-01  -1.6823902377370847e-01  -1.4797419016942279e-01  -1.2533197568615906e-01  -1.0031691693827441e-01  -7.2914567050965010e-02  -4.3240020408498822e-02  -1.1033435211809973e-02  2.2534977920116162e-02  6.0959561995793485e-02  9.2140825691438499e-02  1.5406500605505005e-01  1.2841941436626145e-01  3.8144435620886857e-01  -1.9161389867544798e-01  -1.4695615853166713e-01  -5.7190974963826657e-01  -4.2589425045800866e-01  -3.8618872996169490e-01  -3.3064333290391584e-01  -2.8021219734381775e-01  -2.3128322180082997e-01  -1.8472532804648317e-01  -1.4068572157266701e-01  -9.9494619951048066e-02  -6.1468292205173268e-02  -2.6919853566107953e-02  3.8650330983067711e-03  3.0642037067928153e-02  5.3220597066616165e-02  7.1473196971152800e-02  8.5341767529754725e-02  9.4841132618075891e-02  1.0005951139452980e-01  1.0115623142856156e-01  9.8356874449592707e-02  9.1946256729335929e-02  8.2259685367456065e-02  6.9673050304153217e-02  5.4592271043414624e-02  3.7442650464805619e-02  1.8658570210826075e-02  -1.3260731916637121e-03  -2.2086441310737989e-02  -4.3214141594685368e-02  -6.4323355584164577e-02  -8.5055681231402822e-02  -1.0508372204788140e-01  -1.2411348284498959e-01  -1.4188564217213345e-01  -1.5817578969865626e-01  -1.7279370229106045e-01  -1.8558176070439228e-01  -1.9641259124944513e-01  -2.0518606168574349e-01  -2.1182573941315941e-01  -2.1627498384161267e-01  -2.1849281058330866e-01  -2.1844973497848974e-01  -2.1612374505534412e-01  -2.1149661382977672e-01  -2.0455068571847795e-01  -1.9526629892360706e-01  -1.8361991678357936e-01  -1.6958303313105033e-01  -1.5312187847651962e-01  -1.3419767925075460e-01  -1.1276836145756559e-01  -8.8787555986393832e-02  -6.2217416408061416e-02  -3.2990887963581995e-02  -1.1684989958047332e-03  3.3610047002968386e-02  7.0158776686247828e-02  1.1244327129542785e-01  1.4722905953737592e-01  2.1662704235820496e-01  1.9024729578587635e-01  4.6796074834151818e-01  -1.4695615853166713e-01  -1.0579934950197144e-01  -5.9764363340873661e-01  -4.3753800117248104e-01  -4.0237182067759059e-01  -3.4762396046217620e-01  -2.9882268552857227e-01  -2.5145566569639205e-01  -2.0655564194973022e-01  -1.6418943793415447e-01  -1.2463942482059329e-01  -8.8158442399191309e-02  -5.4997026341533202e-02  -2.5380582493249773e-02  5.0094184238641689e-04  2.2503193724466079e-02  4.0534809301107692e-02  5.4562535941102948e-02  6.4613950241981050e-02  7.0777832132920965e-02  7.3202303912317343e-02  7.2090939581589755e-02  6.7697131664945273e-02  6.0317077410839137e-02  5.0281782418119397e-02  3.7948508599149583e-02  2.3692062262745520e-02  7.8962967059884662e-03  -9.0538803022151629e-03  -2.6779746961281034e-02  -4.4915105279544905e-02  -6.3111611635590648e-02  -8.1043065792788332e-02  -9.8408652717442868e-02  -1.1493517170946951e-01  -1.3037829665537126e-01  -1.4452293202648109e-01  -1.5718272940855782e-01  -1.6819884545929767e-01  -1.7743802622407182e-01  -1.8479011647809501e-01  -1.9016510738877276e-01  -1.9348984333766295e-01  -1.9470452926562759e-01  -1.9375917252210806e-01  -1.9061011157572158e-01  -1.8521675968243370e-01  -1.7753869233328687e-01  -1.6753316717450842e-01  -1.5515314986495485e-01  -1.4034585807864414e-01  -1.2305186979224456e-01  -1.0320452808417242e-01  -8.0730580025607804e-02  -5.5547913006149877e-02  -2.7577198070083839e-02  3.2985586405005077e-03  3.7072041274122093e-02  7.4192042504039823e-02  1.1347012178015632e-01  1.5927369825389159e-01  1.9739028900527539e-01  2.7356503709984425e-01  2.4657678239063699e-01  5.4622736110734316e-01  -1.0579934950197144e-01  -6.9725104676367486e-02  -6.2102311337611260e-01  -4.4774320798326472e-01  -4.1710831511784424e-01  -3.6310216324348510e-01  -3.1583212226992796e-01  -2.6986713245709304e-01  -2.2643064331446847e-01  -1.8552131033436101e-01  -1.4738930252478344e-01  -1.1223740479854905e-01  -8.0265740964748117e-02  -5.1649985703482879e-02  -2.6534588455158169e-02  -5.0247887075626123e-03  1.2819028799381847e-02  2.6985284640871448e-02  3.7513249734493173e-02  4.4493257891166357e-02  4.8065146174032361e-02  4.8415100566609061e-02  4.5771108880117095e-02  4.0397308160897746e-02  3.2587522461694558e-02  2.2658318997661245e-02  1.0941891221144544e-02  -2.2209458181