<?xml version="1.0"?>
<VTKFile type="UnstructuredGrid"  version="0.1"  >
<UnstructuredGrid>
<Piece  NumberOfPoints="4225" NumberOfCells="8192">
<Points>
<DataArray  type="Float64"  NumberOfComponents="3"  format="ascii">-1 -1 0  -0.96875 -1 0  -0.9375 -1 0  -0.90625 -1 0  -0.875 -1 0  -0.84375 -1 0  -0.8125 -1 0  -0.78125 -1 0  -0.75 -1 0  -0.71875 -1 0  -0.6875 -1 0  -0.65625 -1 0  -0.625 -1 0  -0.59375 -1 0  -0.5625 -1 0  -0.53125 -1 0  -0.5 -1 0  -0.46875 -1 0  -0.4375 -1 0  -0.40625 -1 0  -0.375 -1 0  -0.34375 -1 0  -0.3125 -1 0  -0.28125 -1 0  -0.25 -1 0  -0.21875 -1 0  -0.1875 -1 0  -0.15625 -1 0  -0.125 -1 0  -0.09375 -1 0  -0.0625 -1 0  -0.03125 -1 0  0 -1 0  0.03125 -1 0  0.0625 -1 0  0.09375 -1 0  0.125 -1 0  0.15625 -1 0  0.1875 -1 0  0.21875 -1 0  0.25 -1 0  0.28125 -1 0  0.3125 -1 0  0.34375 -1 0  0.375 -1 0  0.40625 -1 0  0.4375 -1 0  0.46875 -1 0  0.5 -1 0  0.53125 -1 0  0.5625 -1 0  0.59375 -1 0  0.625 -1 0  0.65625 -1 0  0.6875 -1 0  0.71875 -1 0  0.75 -1 0  0.78125 -1 0  0.8125 -1 0  0.84375 -1 0  0.875 -1 0  0.90625 -1 0  0.9375 -1 0  0.96875 -1 0  1 -1 0  -1 -0.96875 0  -0.96875 -0.96875 0  -0.9375 -0.96875 0  -0.90625 -0.96875 0  -0.875 -0.96875 0  -0.84375 -0.96875 0  -0.8125 -0.96875 0  -0.78125 -0.96875 0  -0.75 -0.96875 0  -0.71875 -0.96875 0  -0.6875 -0.96875 0  -0.65625 -0.96875 0  -0.625 -0.96875 0  -0.59375 -0.96875 0  -0.5625 -0.96875 0  -0.53125 -0.96875 0  -0.5 -0.96875 0  -0.46875 -0.96875 0  -0.4375 -0.96875 0  -0.40625 -0.96875 0  -0.375 -0.96875 0  -0.34375 -0.96875 0  -0.3125 -0.96875 0  -0.28125 -0.96875 0  -0.25 -0.96875 0  -0.21875 -0.96875 0  -0.1875 -0.96875 0  -0.15625 -0.96875 0  -0.125 -0.96875 0  -0.09375 -0.96875 0  -0.0625 -0.96875 0  -0.03125 -0.96875 0  0 -0.96875 0  0.03125 -0.96875 0  0.0625 -0.96875 0  0.09375 -0.96875 0  0.125 -0.96875 0  0.15625 -0.96875 0  0.1875 -0.96875 0  0.21875 -0.96875 0  0.25 -0.96875 0  0.28125 -0.96875 0  0.3125 -0.96875 0  0.34375 -0.96875 0  0.375 -0.96875 0  0.40625 -0.96875 0  0.4375 -0.96875 0  0.46875 -0.96875 0  0.5 -0.96875 0  0.53125 -0.96875 0  0.5625 -0.96875 0  0.59375 -0.96875 0  0.625 -0.96875 0  0.65625 -0.96875 0  0.6875 -0.96875 0  0.71875 -0.96875 0  0.75 -0.96875 0  0.78125 -0.96875 0  0.8125 -0.96875 0  0.84375 -0.96875 0  0.875 -0.96875 0  0.90625 -0.96875 0  0.9375 -0.96875 0  0.96875 -0.96875 0  1 -0.96875 0  -1 -0.9375 0  -0.96875 -0.9375 0  -0.9375 -0.9375 0  -0.90625 -0.9375 0  -0.875 -0.9375 0  -0.84375 -0.9375 0  -0.8125 -0.9375 0  -0.78125 -0.9375 0  -0.75 -0.9375 0  -0.71875 -0.9375 0  -0.6875 -0.9375 0  -0.65625 -0.9375 0  -0.625 -0.9375 0  -0.59375 -0.9375 0  -0.5625 -0.9375 0  -0.53125 -0.9375 0  -0.5 -0.9375 0  -0.46875 -0.9375 0  -0.4375 -0.9375 0  -0.40625 -0.9375 0  -0.375 -0.9375 0  -0.34375 -0.9375 0  -0.3125 -0.9375 0  -0.28125 -0.9375 0  -0.25 -0.9375 0  -0.21875 -0.9375 0  -0.1875 -0.9375 0  -0.15625 -0.9375 0  -0.125 -0.9375 0  -0.09375 -0.9375 0  -0.0625 -0.9375 0  -0.03125 -0.9375 0  0 -0.9375 0  0.03125 -0.9375 0  0.0625 -0.9375 0  0.09375 -0.9375 0  0.125 -0.9375 0  0.15625 -0.9375 0  0.1875 -0.9375 0  0.21875 -0.9375 0  0.25 -0.9375 0  0.28125 -0.9375 0  0.3125 -0.9375 0  0.34375 -0.9375 0  0.375 -0.9375 0  0.40625 -0.9375 0  0.4375 -0.9375 0  0.46875 -0.9375 0  0.5 -0.9375 0  0.53125 -0.9375 0  0.5625 -0.9375 0  0.59375 -0.9375 0  0.625 -0.9375 0  0.65625 -0.9375 0  0.6875 -0.9375 0  0.71875 -0.9375 0  0.75 -0.9375 0  0.78125 -0.9375 0  0.8125 -0.9375 0  0.84375 -0.9375 0  0.875 -0.9375 0  0.90625 -0.9375 0  0.9375 -0.9375 0  0.96875 -0.9375 0  1 -0.9375 0  -1 -0.90625 0  -0.96875 -0.90625 0  -0.9375 -0.90625 0  -0.90625 -0.90625 0  -0.875 -0.90625 0  -0.84375 -0.90625 0  -0.8125 -0.90625 0  -0.78125 -0.90625 0  -0.75 -0.90625 0  -0.71875 -0.90625 0  -0.6875 -0.90625 0  -0.65625 -0.90625 0  -0.625 -0.90625 0  -0.59375 -0.90625 0  -0.5625 -0.90625 0  -0.53125 -0.90625 0  -0.5 -0.90625 0  -0.46875 -0.90625 0  -0.4375 -0.90625 0  -0.40625 -0.90625 0  -0.375 -0.90625 0  -0.34375 -0.90625 0  -0.3125 -0.90625 0  -0.28125 -0.90625 0  -0.25 -0.90625 0  -0.21875 -0.90625 0  -0.1875 -0.90625 0  -0.15625 -0.90625 0  -0.125 -0.90625 0  -0.09375 -0.90625 0  -0.0625 -0.90625 0  -0.03125 -0.90625 0  0 -0.90625 0  0.03125 -0.90625 0  0.0625 -0.90625 0  0.09375 -0.90625 0  0.125 -0.90625 0  0.15625 -0.90625 0  0.1875 -0.90625 0  0.21875 -0.90625 0  0.25 -0.90625 0  0.28125 -0.90625 0  0.3125 -0.90625 0  0.34375 -0.90625 0  0.375 -0.90625 0  0.40625 -0.90625 0  0.4375 -0.90625 0  0.46875 -0.90625 0  0.5 -0.90625 0  0.53125 -0.90625 0  0.5625 -0.90625 0  0.59375 -0.90625 0  0.625 -0.90625 0  0.65625 -0.90625 0  0.6875 -0.90625 0  0.71875 -0.90625 0  0.75 -0.90625 0  0.78125 -0.90625 0  0.8125 -0.90625 0  0.84375 -0.90625 0  0.875 -0.90625 0  0.90625 -0.90625 0  0.9375 -0.90625 0  0.96875 -0.90625 0  1 -0.90625 0  -1 -0.875 0  -0.96875 -0.875 0  -0.9375 -0.875 0  -0.90625 -0.875 0  -0.875 -0.875 0  -0.84375 -0.875 0  -0.8125 -0.875 0  -0.78125 -0.875 0  -0.75 -0.875 0  -0.71875 -0.875 0  -0.6875 -0.875 0  -0.65625 -0.875 0  -0.625 -0.875 0  -0.59375 -0.875 0  -0.5625 -0.875 0  -0.53125 -0.875 0  -0.5 -0.875 0  -0.46875 -0.875 0  -0.4375 -0.875 0  -0.40625 -0.875 0  -0.375 -0.875 0  -0.34375 -0.875 0  -0.3125 -0.875 0  -0.28125 -0.875 0  -0.25 -0.875 0  -0.21875 -0.875 0  -0.1875 -0.875 0  -0.15625 -0.875 0  -0.125 -0.875 0  -0.09375 -0.875 0  -0.0625 -0.875 0  -0.03125 -0.875 0  0 -0.875 0  0.03125 -0.875 0  0.0625 -0.875 0  0.09375 -0.875 0  0.125 -0.875 0  0.15625 -0.875 0  0.1875 -0.875 0  0.21875 -0.875 0  0.25 -0.875 0  0.28125 -0.875 0  0.3125 -0.875 0  0.34375 -0.875 0  0.375 -0.875 0  0.40625 -0.875 0  0.4375 -0.875 0  0.46875 -0.875 0  0.5 -0.875 0  0.53125 -0.875 0  0.5625 -0.875 0  0.59375 -0.875 0  0.625 -0.875 0  0.65625 -0.875 0  0.6875 -0.875 0  0.71875 -0.875 0  0.75 -0.875 0  0.78125 -0.875 0  0.8125 -0.875 0  0.84375 -0.875 0  0.875 -0.875 0  0.90625 -0.875 0  0.9375 -0.875 0  0.96875 -0.875 0  1 -0.875 0  -1 -0.84375 0  -0.96875 -0.84375 0  -0.9375 -0.84375 0  -0.90625 -0.84375 0  -0.875 -0.84375 0  -0.84375 -0.84375 0  -0.8125 -0.84375 0  -0.78125 -0.84375 0  -0.75 -0.84375 0  -0.71875 -0.84375 0  -0.6875 -0.84375 0  -0.65625 -0.84375 0  -0.625 -0.84375 0  -0.59375 -0.84375 0  -0.5625 -0.84375 0  -0.53125 -0.84375 0  -0.5 -0.84375 0  -0.46875 -0.84375 0  -0.4375 -0.84375 0  -0.40625 -0.84375 0  -0.375 -0.84375 0  -0.34375 -0.84375 0  -0.3125 -0.84375 0  -0.28125 -0.84375 0  -0.25 -0.84375 0  -0.21875 -0.84375 0  -0.1875 -0.84375 0  -0.15625 -0.84375 0  -0.125 -0.84375 0  -0.09375 -0.84375 0  -0.0625 -0.84375 0  -0.03125 -0.84375 0  0 -0.84375 0  0.03125 -0.84375 0  0.0625 -0.84375 0  0.09375 -0.84375 0  0.125 -0.84375 0  0.15625 -0.84375 0  0.1875 -0.84375 0  0.21875 -0.84375 0  0.25 -0.84375 0  0.28125 -0.84375 0  0.3125 -0.84375 0  0.34375 -0.84375 0  0.375 -0.84375 0  0.40625 -0.84375 0  0.4375 -0.84375 0  0.46875 -0.84375 0  0.5 -0.84375 0  0.53125 -0.84375 0  0.5625 -0.84375 0  0.59375 -0.84375 0  0.625 -0.84375 0  0.65625 -0.84375 0  0.6875 -0.84375 0  0.71875 -0.84375 0  0.75 -0.84375 0  0.78125 -0.84375 0  0.8125 -0.84375 0  0.84375 -0.84375 0  0.875 -0.84375 0  0.90625 -0.84375 0  0.9375 -0.84375 0  0.96875 -0.84375 0  1 -0.84375 0  -1 -0.8125 0  -0.96875 -0.8125 0  -0.9375 -0.8125 0  -0.90625 -0.8125 0  -0.875 -0.8125 0  -0.84375 -0.8125 0  -0.8125 -0.8125 0  -0.78125 -0.8125 0  -0.75 -0.8125 0  -0.71875 -0.8125 0  -0.6875 -0.8125 0  -0.65625 -0.8125 0  -0.625 -0.8125 0  -0.59375 -0.8125 0  -0.5625 -0.8125 0  -0.53125 -0.8125 0  -0.5 -0.8125 0  -0.46875 -0.8125 0  -0.4375 -0.8125 0  -0.40625 -0.8125 0  -0.375 -0.8125 0  -0.34375 -0.8125 0  -0.3125 -0.8125 0  -0.28125 -0.8125 0  -0.25 -0.8125 0  -0.21875 -0.8125 0  -0.1875 -0.8125 0  -0.15625 -0.8125 0  -0.125 -0.8125 0  -0.09375 -0.8125 0  -0.0625 -0.8125 0  -0.03125 -0.8125 0  0 -0.8125 0  0.03125 -0.8125 0  0.0625 -0.8125 0  0.09375 -0.8125 0  0.125 -0.8125 0  0.15625 -0.8125 0  0.1875 -0.8125 0  0.21875 -0.8125 0  0.25 -0.8125 0  0.28125 -0.8125 0  0.3125 -0.8125 0  0.34375 -0.8125 0  0.375 -0.8125 0  0.40625 -0.8125 0  0.4375 -0.8125 0  0.46875 -0.8125 0  0.5 -0.8125 0  0.53125 -0.8125 0  0.5625 -0.8125 0  0.59375 -0.8125 0  0.625 -0.8125 0  0.65625 -0.8125 0  0.6875 -0.8125 0  0.71875 -0.8125 0  0.75 -0.8125 0  0.78125 -0.8125 0  0.8125 -0.8125 0  0.84375 -0.8125 0  0.875 -0.8125 0  0.90625 -0.8125 0  0.9375 -0.8125 0  0.96875 -0.8125 0  1 -0.8125 0  -1 -0.78125 0  -0.96875 -0.78125 0  -0.9375 -0.78125 0  -0.90625 -0.78125 0  -0.875 -0.78125 0  -0.84375 -0.78125 0  -0.8125 -0.78125 0  -0.78125 -0.78125 0  -0.75 -0.78125 0  -0.71875 -0.78125 0  -0.6875 -0.78125 0  -0.65625 -0.78125 0  -0.625 -0.78125 0  -0.59375 -0.78125 0  -0.5625 -0.78125 0  -0.53125 -0.78125 0  -0.5 -0.78125 0  -0.46875 -0.78125 0  -0.4375 -0.78125 0  -0.40625 -0.78125 0  -0.375 -0.78125 0  -0.34375 -0.78125 0  -0.3125 -0.78125 0  -0.28125 -0.78125 0  -0.25 -0.78125 0  -0.21875 -0.78125 0  -0.1875 -0.78125 0  -0.15625 -0.78125 0  -0.125 -0.78125 0  -0.09375 -0.78125 0  -0.0625 -0.78125 0  -0.03125 -0.78125 0  0 -0.78125 0  0.03125 -0.78125 0  0.0625 -0.78125 0  0.09375 -0.78125 0  0.125 -0.78125 0  0.15625 -0.78125 0  0.1875 -0.78125 0  0.21875 -0.78125 0  0.25 -0.78125 0  0.28125 -0.78125 0  0.3125 -0.78125 0  0.34375 -0.78125 0  0.375 -0.78125 0  0.40625 -0.78125 0  0.4375 -0.78125 0  0.46875 -0.78125 0  0.5 -0.78125 0  0.53125 -0.78125 0  0.5625 -0.78125 0  0.59375 -0.78125 0  0.625 -0.78125 0  0.65625 -0.78125 0  0.6875 -0.78125 0  0.71875 -0.78125 0  0.75 -0.78125 0  0.78125 -0.78125 0  0.8125 -0.78125 0  0.84375 -0.78125 0  0.875 -0.78125 0  0.90625 -0.78125 0  0.9375 -0.78125 0  0.96875 -0.78125 0  1 -0.78125 0  -1 -0.75 0  -0.96875 -0.75 0  -0.9375 -0.75 0  -0.90625 -0.75 0  -0.875 -0.75 0  -0.84375 -0.75 0  -0.8125 -0.75 0  -0.78125 -0.75 0  -0.75 -0.75 0  -0.71875 -0.75 0  -0.6875 -0.75 0  -0.65625 -0.75 0  -0.625 -0.75 0  -0.59375 -0.75 0  -0.5625 -0.75 0  -0.53125 -0.75 0  -0.5 -0.75 0  -0.46875 -0.75 0  -0.4375 -0.75 0  -0.40625 -0.75
[...]
<PointData  Scalars="f_15"> 
<DataArray  type="Float64"  Name="f_15"  format="ascii">-4.5318788308571362e-01  -4.4883394403664090e-01  -4.3593944632536119e-01  -4.1499991826760169e-01  -3.8682005418359905e-01  -3.5248279044665176e-01  -3.1330768884561194e-01  -2.7080022656535657e-01  -2.2659394154285678e-01  -1.8238765652035707e-01  -1.3988019424010179e-01  -1.0070509263906176e-01  -6.6367828902114581e-02  -3.8187964818112020e-02  -1.7248436760352402e-02  -4.3539390490727895e-03  0.0000000000000000e+00  -4.3539390490727895e-03  -1.7248436760352426e-02  -3.8187964818112041e-02  -6.6367828902114637e-02  -1.0070509263906180e-01  -1.3988019424010190e-01  -1.8238765652035716e-01  -2.2659394154285681e-01  -2.7080022656535657e-01  -3.1330768884561183e-01  -3.5248279044665193e-01  -3.8682005418359905e-01  -4.1499991826760169e-01  -4.3593944632536130e-01  -4.4883394403664090e-01  -4.5318788308571362e-01  -4.4883394403664090e-01  -4.3593944632536130e-01  -4.1499991826760169e-01  -3.8682005418359905e-01  -3.5248279044665193e-01  -3.1330768884561183e-01  -2.7080022656535657e-01  -2.2659394154285681e-01  -1.8238765652035716e-01  -1.3988019424010190e-01  -1.0070509263906180e-01  -6.6367828902114637e-02  -3.8187964818112041e-02  -1.7248436760352426e-02  -4.3539390490727895e-03  0.0000000000000000e+00  -4.3539390490727895e-03  -1.7248436760352402e-02  -3.8187964818112020e-02  -6.6367828902114581e-02  -1.0070509263906176e-01  -1.3988019424010179e-01  -1.8238765652035707e-01  -2.2659394154285678e-01  -2.7080022656535657e-01  -3.1330768884561194e-01  -3.5248279044665176e-01  -3.8682005418359905e-01  -4.1499991826760169e-01  -4.3593944632536119e-01  -4.4883394403664090e-01  -4.5318788308571362e-01  -4.4883394403664090e-01  -3.3344939126244000e-01  -3.1180274029742772e-01  -2.7306578914826918e-01  -2.2527226292753075e-01  -1.6966165532319277e-01  -1.0819033290965528e-01  -4.2888053388750277e-02  2.4167011067166538e-02  9.0896081370804058e-02  1.5527422365079124e-01  2.1538876677384058e-01  2.6949598332985158e-01  3.1607193871702571e-01  3.5385528411626160e-01  3.8188107821758138e-01  3.9950551481529378e-01  4.0642160090798951e-01  4.0266583552845442e-01  3.8861552818571593e-01  3.6497595243089775e-01  3.3275569618440076e-01  2.9322784406679614e-01  2.4787402011816345e-01  1.9830893451536161e-01  1.4618561240611522e-01  9.3086875720512233e-02  4.0415906160544628e-02  -1.0694931018400470e-02  -5.9436831191966702e-02  -1.0532608336773074e-01  -1.4815599218356862e-01  -1.8791606522967816e-01  -2.2470370109645466e-01  -2.5865136828523588e-01  -2.8988130056082179e-01  -3.1848692363973080e-01  -3.4453138783795745e-01  -3.6805185338575419e-01  -3.8906163496113366e-01  -4.0754813713885180e-01  -4.2346896364606995e-01  -4.3675078458171401e-01  -4.4729485416776216e-01  -4.5499108696473323e-01  -4.5973978300982055e-01  -4.6147796557547216e-01  -4.6020568010017932e-01  -4.5600732001893346e-01  -4.4906334013972748e-01  -4.3964925676465616e-01  -4.2812035214045119e-01  -4.1488408050774084e-01  -4.0036211323568915e-01  -3.8495788113830715e-01  -3.6902128581366767e-01  -3.5290884275797441e-01  -3.3696366950329426e-01  -3.2211658762740397e-01  -3.0915620079237988e-01  -3.0221933049433741e-01  -2.9920562999754047e-01  -3.1970831317705123e-01  -3.1350547395846518e-01  -4.4883394403664090e-01  -4.3593944632536119e-01  -3.1289463443043725e-01  -3.2618336441358781e-01  -3.0056735939740137e-01  -2.6846339801889219e-01  -2.2891469964898753e-01  -1.8375409874523946e-01  -1.3467844736784682e-01  -8.3467075032001972e-02  -3.1928763303963111e-02  1.8153752054716119e-02  6.5086320590031735e-02  1.0732455307110973e-01  1.4352833609928800e-01  1.7260690115454150e-01  1.9375361912721534e-01  2.0647045137946923e-01  2.1058218965651990e-01  2.0624017528110189e-01  1.9391477522236381e-01  1.7437508298569698e-01  1.4865369398346684e-01  1.1799381050230114e-01  8.3776562995268616e-02  4.7428891813491268e-02  1.0317655337421650e-02  -2.6357287566641314e-02  -6.1652050350654221e-02  -9.4929787314309483e-02  -1.2586088749354141e-01  -1.5437297766449498e-01  -1.8056609373137253e-01  -2.0461718169162088e-01  -2.2669772902885649e-01  -2.4692005653593491e-01  -2.6531669548161291e-01  -2.8184773916219136e-01  -2.9642611720848167e-01  -3.0895004738461490e-01  -3.1933442834986009e-01  -3.2753609825256652e-01  -3.3357078872119694e-01  -3.3752108228804073e-01  -3.3953562231599849e-01  -3.3982016565338125e-01  -3.3862188650097069e-01  -3.3620906395071770e-01  -3.3284932071733747e-01  -3.2878987878302002e-01  -3.2424320468112494e-01  -3.1938033803425603e-01  -3.1433253245458620e-01  -3.0920137598039926e-01  -3.0407335234388305e-01  -2.9904810365040302e-01  -2.9425462294505256e-01  -2.8995799614053402e-01  -2.8649096158492204e-01  -2.8487130869272098e-01  -2.8555178109157431e-01  -2.9258893467550745e-01  -3.0087258049504118e-01  -3.3085730142900238e-01  -3.1242723918043336e-01  -4.3593944632536119e-01  -4.1499991826760169e-01  -2.9828130987309653e-01  -3.0432130511555888e-01  -2.7582490722257702e-01  -2.4375145530117476e-01  -2.0407613243576686e-01  -1.5887203493249807e-01  -1.0962328709606611e-01  -5.7981928844792772e-02  -5.6777950088317220e-03  4.5531489364944680e-02  9.3928439702336455e-02  1.3790821066615888e-01  1.7604762996942744e-01  2.0716492887438442e-01  2.3036712837147794e-01  2.4508405844456718e-01  2.5108881202846250e-01  2.4850435268765855e-01  2.3779521502079659e-01  2.1974231589891619e-01  1.9539831151175552e-01  1.6602155830559950e-01  1.3298926205775738e-01  9.7695155379498286e-02  6.1443035214653351e-02  2.5352355357693829e-02  -9.7072467409623948e-03  -4.3140829850581895e-02  -7.4610662174935616e-02  -1.0398525725838377e-01  -1.3127084329747990e-01  -1.5654240385927609e-01  -1.7988756663731423e-01  -2.0137028733501630e-01  -2.2101502273535897e-01  -2.3880760879674875e-01  -2.5470688972674999e-01  -2.6866107751512486e-01  -2.8062407242285231e-01  -2.9056878981774176e-01  -2.9849617212009150e-01  -3.0443980588737907e-01  -3.0846674608430646e-01  -3.1067551982078823e-01  -3.1119236987624749e-01  -3.1016680736552865e-01  -3.0776735771777741e-01  -3.0417818824650517e-01  -2.9959690703607239e-01  -2.9423371227458922e-01  -2.8831147720479083e-01  -2.8206812519749713e-01  -2.7575853580391552e-01  -2.6967103682482479e-01  -2.6412469377283665e-01  -2.5957779329770497e-01  -2.5648254393010178e-01  -2.5600739295526370e-01  -2.5822239427374560e-01  -2.6740584476708079e-01  -2.7495786065611899e-01  -3.0544109766852129e-01  -2.6827146141185865e-01  -4.1499991826760169e-01  -3.8682005418359905e-01  -2.9615852118255703e-01  -2.9302790660483591e-01  -2.6547717157972367e-01  -2.3463822526427508e-01  -1.9774009553151511e-01  -1.5660426797581306e-01  -1.1233070516461975e-01  -6.6267741914889100e-02  -1.9834412670670293e-02  2.5512564250194224e-02  6.8336900913162260e-02  1.0728655235386500e-01  1.4115764344980006e-01  1.6895227062860793e-01  1.8992560032854658e-01  2.0361942261554744e-01  2.0988044478584025e-01  2.0886217942888929e-01  2.0100935122358399e-01  1.8702404454627847e-01  1.6781364348025726e-01  1.4442264712051336e-01  1.1795339170755437e-01  8.9484088493944916e-02  5.9994830841398304e-02  3.0312098413717556e-02  1.0790212179029102e-03  -2.7246802212508282e-02  -5.4371979597191145e-02  -8.0130645141239798e-02  -1.0444196666152397e-01  -1.2727026716962325e-01  -1.4859354955404058e-01  -1.6838318046019946e-01  -1.8659474328266329e-01  -2.0316816967075019e-01  -2.1803418837341032e-01  -2.3112401299828800e-01  -2.4237960897664140e-01  -2.5176271642129838e-01  -2.5926157268435290e-01  -2.6489498804125983e-01  -2.6871382606829225e-01  -2.7080028165267128e-01  -2.7126547099851611e-01  -2.7024603675982312e-01  -2.6790049681288591e-01  -2.6440612368504873e-01  -2.5995694952450998e-01  -2.5476350319541796e-01  -2.4905415026137620e-01  -2.4307985331255361e-01  -2.3711832852311157e-01  -2.3149526243393465e-01  -2.2657579970927269e-01  -2.2288905233704420e-01  -2.2090419637500025e-01  -2.2190094413379841e-01  -2.2550441786760123e-01  -2.3642204916700738e-01  -2.4251071035259311e-01  -2.7420475632204672e-01  -2.2132248933247081e-01  -3.8682005418359905e-01  -3.5248279044665176e-01  -3.0262690862047986e-01  -2.8703554802048081e-01  -2.5745043213582769e-01  -2.2508352095131801e-01  -1.8835191872435872e-01  -1.4838074131485401e-01  -1.0603344480681988e-01  -6.2411884250634778e-02  -1.8691929863590421e-02  2.3896123284156016e-02  6.4120579131642388e-02  1.0080510831817036e-01  1.3288802716747075e-01  1.5947838275726434e-01  1.7990371773409922e-01  1.9374526494389052e-01  2.0085756170408139e-01  2.0137049368370910e-01  1.9567293200273170e-01  1.8437828792149596e-01  1.6827405737831169e-01  1.4825942087159327e-01  1.2527716905219169e-01  1.0024765897330855e-01  7.4012703403474309e-02  4.7295646579641956e-02  2.0680855775680910e-02  -5.3878036265426494e-03  -3.0593056089927462e-02  -5.4720295579764051e-02  -7.7629515796818663e-02  -9.9228171098434736e-02  -1.1944863206357753e-01  -1.3823219066102152e-01  -1.5552007686629163e-01  -1.7125067473747854e-01  -1.8536144165110147e-01  -1.9779367612841978e-01  -2.0849847100594388e-01  -2.1744247063972053e-01  -2.2461260974854350e-01  -2.3001937135711106e-01  -2.3369855882614368e-01  -2.3571173209902649e-01  -2.3614572860744965e-01  -2.3511167524761847e-01  -2.3274401358460853e-01  -2.2919992059820468e-01  -2.2465946984964102e-01  -2.1932687520088975e-01  -2.1343261670873884e-01  -2.0723860069899222e-01  -2.0104141121020058e-01  -1.9519516038883145e-01  -1.9009363782329497e-01  -1.8631499532799023e-01  -1.8431103893483577e-01  -1.8547234987441705e-01  -1.8891324524854197e-01  -1.9998673266568456e-01  -2.0281627747337722e-01  -2.3513411190504471e-01  -1.6544176991408854e-01  -3.5248279044665176e-01  -3.1330768884561194e-01  -3.1428639610255987e-01  -2.8572721313147986e-01  -2.5452236890312990e-01  -2.2084673753434714e-01  -1.8424784824360479e-01  -1.4543414872175145e-01  -1.0511017267740311e-01  -6.4152788238214437e-02  -2.3518500706723237e-02  1.5786271931992071e-02  5.2754098702371896e-02  8.6424579445932875e-02  1.1593362570406757e-01  1.4055966053933097e-01  1.5976266147453322e-01  1.7321240312743549e-01  1.8080305899438875e-01  1.8265257583789110e-01  1.7908651568367162e-01  1.7060764336543666e-01  1.5785401884115433e-01  1.4154984971051110e-01  1.2245428945705213e-01  1.0131366330835058e-01  7.8821872888166250e-02  5.5592263451721004e-02  3.2142234023761276e-02  8.8899273101734379e-03  -1.3839204559332959e-02  -3.5799053781015805e-02  -5.6806041643361553e-02  -7.6721874186443342e-02  -9.5438214891431394e-02  -1.1286482170301583e-01  -1.2892176732181929e-01  -1.4353565119087544e-01  -1.5663907907224908e-01  -1.6817245985080209e-01  -1.7808703841342174e-01  -1.8634831326040963e-01  -1.9293913975343779e-01  -1.9786219137028097e-01  -2.0114159969284648e-01  -2.0282388989780120e-01  -2.0297835309523463e-01  -2.0169718477725759e-01  -1.9909562666227557e-01  -1.9531246828509261e-01  -1.9051105748103153e-01  -1.8488128155391062e-01  -1.7864217269979518e-01  -1.7204781357517254e-01  -1.6539028112787862e-01  -1.5902542955362803e-01  -1.5334603269793773e-01  -1.4895206551052875e-01  -1.4624432138982069e-01  -1.4672632899775609e-01  -1.4894606535675736e-01  -1.5913186592675657e-01  -1.5752220359632024e-01  -1.9030693893134054e-01  -1.0392114826569943e-01  -3.1330768884561194e-01  -2.7080022656535657e-01  -3.2862524852318958e-01  -2.8738086896658210e-01  -2.5502668466455441e-01  -2.2002183659378882e-01  -1.8333750265825544e-01  -1.4529790771597081e-01  -1.0645193894291465e-01  -6.7492623333011814e-02  -2.9197148144651120e-02  7.6123224647223599e-03  4.2110946706208713e-02  7.3512382789131053e-02  1.0110982898678018e-01  1.2431382087472764e-01  1.4268399443851734e-01  1.5595193190852705e-01  1.6403285074276772e-01  1.6702486362475691e-01  1.6519576768793301e-01  1.5895863638208999e-01  1.4883871859932588e-01  1.3543512090389490e-01  1.1938124327219213e-01  1.0130788605787257e-01  8.1812295234687679e-02  6.1435348088148579e-02  4.0647780101921403e-02  1.9845119374156756e-02  -6.5001686857488444e-04  -2.0580236077294433e-02  -3.9742521669746421e-02  -5.7976339311625325e-02  -7.5152453409913889e-02  -9.1163676122948414e-02  -1.0591818983027995e-01  -1.1933554801501009e-01  -1.3134504617720977e-01  -1.4188589973170040e-01  -1.5090858310111391e-01  -1.5837672305093312e-01  -1.6426907823162626e-01  -1.6858129865028701e-01  -1.7132732974660958e-01  -1.7254046079259527e-01  -1.7227412678439100e-01  -1.7060262038492158e-01  -1.6762191471082311e-01  -1.6345078966852197e-01  -1.5823242175164526e-01  -1.5213682942705989e-01  -1.4536384069388980e-01  -1.3814955487548899e-01  -1.3076891911568120e-01  -1.2356450890788705e-01  -1.1691035645297765e-01  -1.1141105285878385e-01  -1.0739250161920179e-01  -1.0647637153821746e-01  -1.0660400903320123e-01  -1.1508712471787913e-01  -1.0816769748785812e-01  -1.4141067359431997e-01  -3.8574263289825307e-02  -2.7080022656535657e-01  -2.2659394154285678e-01  -3.4416104534079767e-01  -2.9077402839502225e-01  -2.5795703922798585e-01  -2.2191772707996760e-01  -1.8526349232588019e-01  -1.4794496301722668e-01  -1.1041412655402995e-01  -7.3219780915671023e-02  -3.6990916559074168e-02  -2.3953979186997708e-03  2.9897190025055045e-02  5.9251336441919857e-02  8.5099396591866563e-02  1.0697172338011496e-01  1.2452128249485889e-01  1.3754081331384510e-01  1.4597110573525574e-01  1.4989964101426051e-01  1.4954982576926859e-01  1.4526192532455440e-01  1.3746772050808595e-01  1.2666143053934237e-01  1.1336977526297035e-01  9.8123856562304421e-02  8.1435136909777897e-02  6.3777023408449415e-02  4.5572781300430125e-02  2.7189660308841013e-02  8.9384724960454454e-03  -8.9226155438812023e-03  -2.6181535989876228e-02  -4.2664469420711441e-02  -5.8227970297673841e-02  -7.2752007312845535e-02  -8.6134519816293220e-02  -9.8287686035015434e-02  -1.0913584628466425e-01  -1.1861477295369328e-01  -1.2667193199280163e-01  -1.3326732143208864e-01  -1.3837459119674841e-01  -1.4198218376330118e-01  -1.4409440710216248e-01  -1.4473237690267174e-01  -1.4393490881075738e-01  -1.4175942889226345e-01  -1.3828305167506599e-01  -1.3360395583743984e-01  -1.2784320023298229e-01  -1.2114737954825010e-01  -1.1369176354402512e-01  -1.0568719810827422e-01  -9.7382286377293431e-02  -8.9095122239761598e-02  -8.1167878507336019e-02  -7.4196063166574469e-02  -6.8413446110854315e-02  -6.5563121697020096e-02  -6.2961475353905325e-02  -6.9172342345230634e-02  -5.6419924364578808e-02  -9.0236834953907316e-02  2.8490665464336429e-02  -2.2659394154285678e-01  -1.8238765652035707e-01  -3.6014933888441408e-01  -2.9513559430314357e-01  -2.6249182088151451e-01  -2.2566698761669954e-01  -1.8912061844525396e-01  -1.5244658637510744e-01  -1.1604242065318540e-01  -8.0337974965302872e-02  -4.5841269999716230e-02  -1.3092839332228955e-02  1.7366094680082721e-02  4.5024095555180770e-02  6.9427185326341387e-02  9.0202891524018461e-02  1.0707940567468628e-01  1.1989865156596619e-01  1.2862233441909893e-01  1.3333060802971849e-01  1.3421357901511874e-01  1.3155659300185080e-01  1.2572076115155173e-01  1.1712064916920586e-01  1.0620115564036094e-01  9.3415576178885712e-02  7.9206478211451908e-02  6.3990568323921845e-02  4.8148126607559870e-02  3.2017048403891156e-02  1.5891025925507559e-02  2.1065721535694798e-05  -1.5380656409349028e-02  -3.0135637460542746e-02  -4.4093508981163390e-02  -5.7126862490059500e-02  -6.9126912914822591e-02  -8.0000258517589073e-02  -8.9666748701513865e-02  -9.8058352490128078e-02  -1.0511879357909600e-01  -1.1080373566313430e-01  -1.1508127806536052e-01  -1.1793262500229938e-01  -1.1935279960530569e-01  -1.1935140024494116e-01  -1.1795338788653782e-01  -1.1519999138692591e-01  -1.1114979108832017e-01  -1.0588013445419642e-01  -9.9488967070371415e-02  -9.2097544283920238e-02  -8.3853593083508454e-02  -7.4938491251691886e-02  -6.5569021956994267e-02  -5.6031620248130659e-02  -4.6628314390268648e-02  -3.7935069268499495e-02  -3.0084095426615682e-02  -2.4938788728571849e-02  -1.9201123903397409e-02  -2.2797074865388078e-02  -4.0260718592120860e-03  -3.8603566210686495e-02  9.5200446306946393e-02  -1.8238765652035707e-01  -1.3988019424010179e-01  -3.7620385804017814e-01  -3.0000333710652022e-01  -2.6805636908867642e-01  -2.3064544837405945e-01  -1.9427855715541503e-01  -1.5819276416343828e-01  -1.2276766412283617e-01  -8.8339018651915083e-02  -5.5318248746596001e-02  -2.4140992021570266e-02  4.7580357137157053e-03  3.0970692537731773e-02  5.4137904362607091e-02  7.3968752177634017e-02  9.0255302368745433e-02  1.0288242268019619e-01  1.1183207272959161e-01  1.1718189635579958e-01  1.1909841675727921e-01  1.1782555514938925e-01  1.1366960973153101e-01  1.0698206634549642e-01  9.8141743413724336e-02  8.7537678111306319e-02  7.5553970164889461e-02  6.2557441056525082e-02  4.8888599361064947e-02  3.4855988470406399e-02  2.0733666077291608e-02  6.7612922814123139e-03  -6.8538442187604165e-03  -1.9933581913876265e-02  -3.2325099768135516e-02  -4.3897141587478788e-02  -5.4536657001972091e-02  -6.4146086094966373e-02  -7.2641379190856503e-02  -7.9950710737897612e-02  -8.6013790405875826e-02  -9.0781619734940339e-02  -9.4216571489243270e-02  -9.6292664309530068e-02  -9.6995977740928649e-02  -9.6325156623126823e-02  -9.4292030116634090e-02  -9.0922369181217863e-02  -8.6256864872151257e-02  -8.0352428739964357e-02  -7.3283936184847506e-02  -6.5146848549626990e-02  -5.6060325750505333e-02  -4.6174476675669360e-02  -3.5671735169874534e-02  -2.4802884075593359e-02  -1.3825713160585713e-02  -3.2887668989830901e-03  6.7782192355627180e-03  1.4399463260022432e-02  2.3443706006752826e-02  2.2590542909145805e-02  4.7241951091697064e-02  1.1698347793863931e-02  1.5953095342890355e-01  -1.3988019424010179e-01  -1.0070509263906176e-01  -3.9203434417369454e-01  -3.0509841188045855e-01  -2.7422982017300029e-01  -2.3636502701516773e-01  -2.0021564629386790e-01  -1.6465246164319577e-01  -1.3006787458918415e-01  -9.6722470307311958e-02  -6.4950287150996280e-02  -3.5100343253265644e-02  -7.5187707084506871e-03  1.7472455216810377e-02  3.9593443502965925e-02  5.8621383014447727e-02  7.4401943723455502e-02  8.6856629457952791e-02  9.5985783535853519e-02  1.0186721618743913e-01  1.0465072926583166e-01  1.0454911966706117e-01  1.0182650525734185e-01  9.6784993748714548e-02  8.9750779696144894e-02  8.1060714530767325e-02  7.1050233890046971e-02  6.0043308124920432e-02  4.8344794527221978e-02  3.6235308178864840e-02  2.3968463465801365e-02  1.1770158886837908e-02  -1.6055672006686596e-04  -1.1649536635026219e-02  -2.2545000266697611e-02  -3.2714823660331162e-02  -4.2043979831112757e-02  -5.0432332771564232e-02  -5.7792891184978767e-02  -6.4050535975911593e-02  -6.9141179998891772e-02  -7.3011285242808532e-02  -7.5617654058899780e-02  -7.6927424835958144e-02  -7.6918218097329114e-02  -7.5578413543103101e-02  -7.2907558812630432e-02  -6.8916945191014128e-02  -6.3630406632747230e-02  -5.7085455905818677e-02  -4.9334866744837336e-02  -4.0449153529791171e-02  -3.0519565669676545e-02  -1.9665260594041816e-02  -8.0343986884836450e-03  4.1589424786533684e-03  1.6701285682631347e-02  2.9076785507253552e-02  4.1350152125210544e-02  5.1449499560861318e-02  6.3736897221085262e-02  6.5557771043603455e-02  9.5655541860220336e-02  5.8966536438391844e-02  2.1957109511795209e-01  -1.0070509263906176e-01  -6.6367828902114581e-02  -4.0731936585280953e-01  -3.1024262499300448e-01  -2.8067896052608604e-01  -2.4243484526276290e-01  -2.0651318397616633e-01  -1.7140502976677902e-01  -1.3753857779783285e-01  -1.0511294281445793e-01  -7.4400130439951834e-02  -4.5677212490440953e-02  -1.9216101617978987e-02  4.7337529656877276e-03  2.5959246874643918e-02  4.4295211933255745e-02  5.9633055159065231e-02  7.1926177361817917e-02  8.1191993525110501e-02  8.7510595851950798e-02  9.1020296920667348e-02  9.1910524634536764e-02  9.0412695330116866e-02  8.6789827798074579e-02  8.1325690681162077e-02  7.4314248762065091e-02  6.6050064976304224e-02  5.682