<?xml version="1.0"?>
<VTKFile type="UnstructuredGrid"  version="0.1"  >
<UnstructuredGrid>
<Piece  NumberOfPoints="4225" NumberOfCells="8192">
<Points>
<DataArray  type="Float64"  NumberOfComponents="3"  format="ascii">-1 -1 0  -0.96875 -1 0  -0.9375 -1 0  -0.90625 -1 0  -0.875 -1 0  -0.84375 -1 0  -0.8125 -1 0  -0.78125 -1 0  -0.75 -1 0  -0.71875 -1 0  -0.6875 -1 0  -0.65625 -1 0  -0.625 -1 0  -0.59375 -1 0  -0.5625 -1 0  -0.53125 -1 0  -0.5 -1 0  -0.46875 -1 0  -0.4375 -1 0  -0.40625 -1 0  -0.375 -1 0  -0.34375 -1 0  -0.3125 -1 0  -0.28125 -1 0  -0.25 -1 0  -0.21875 -1 0  -0.1875 -1 0  -0.15625 -1 0  -0.125 -1 0  -0.09375 -1 0  -0.0625 -1 0  -0.03125 -1 0  0 -1 0  0.03125 -1 0  0.0625 -1 0  0.09375 -1 0  0.125 -1 0  0.15625 -1 0  0.1875 -1 0  0.21875 -1 0  0.25 -1 0  0.28125 -1 0  0.3125 -1 0  0.34375 -1 0  0.375 -1 0  0.40625 -1 0  0.4375 -1 0  0.46875 -1 0  0.5 -1 0  0.53125 -1 0  0.5625 -1 0  0.59375 -1 0  0.625 -1 0  0.65625 -1 0  0.6875 -1 0  0.71875 -1 0  0.75 -1 0  0.78125 -1 0  0.8125 -1 0  0.84375 -1 0  0.875 -1 0  0.90625 -1 0  0.9375 -1 0  0.96875 -1 0  1 -1 0  -1 -0.96875 0  -0.96875 -0.96875 0  -0.9375 -0.96875 0  -0.90625 -0.96875 0  -0.875 -0.96875 0  -0.84375 -0.96875 0  -0.8125 -0.96875 0  -0.78125 -0.96875 0  -0.75 -0.96875 0  -0.71875 -0.96875 0  -0.6875 -0.96875 0  -0.65625 -0.96875 0  -0.625 -0.96875 0  -0.59375 -0.96875 0  -0.5625 -0.96875 0  -0.53125 -0.96875 0  -0.5 -0.96875 0  -0.46875 -0.96875 0  -0.4375 -0.96875 0  -0.40625 -0.96875 0  -0.375 -0.96875 0  -0.34375 -0.96875 0  -0.3125 -0.96875 0  -0.28125 -0.96875 0  -0.25 -0.96875 0  -0.21875 -0.96875 0  -0.1875 -0.96875 0  -0.15625 -0.96875 0  -0.125 -0.96875 0  -0.09375 -0.96875 0  -0.0625 -0.96875 0  -0.03125 -0.96875 0  0 -0.96875 0  0.03125 -0.96875 0  0.0625 -0.96875 0  0.09375 -0.96875 0  0.125 -0.96875 0  0.15625 -0.96875 0  0.1875 -0.96875 0  0.21875 -0.96875 0  0.25 -0.96875 0  0.28125 -0.96875 0  0.3125 -0.96875 0  0.34375 -0.96875 0  0.375 -0.96875 0  0.40625 -0.96875 0  0.4375 -0.96875 0  0.46875 -0.96875 0  0.5 -0.96875 0  0.53125 -0.96875 0  0.5625 -0.96875 0  0.59375 -0.96875 0  0.625 -0.96875 0  0.65625 -0.96875 0  0.6875 -0.96875 0  0.71875 -0.96875 0  0.75 -0.96875 0  0.78125 -0.96875 0  0.8125 -0.96875 0  0.84375 -0.96875 0  0.875 -0.96875 0  0.90625 -0.96875 0  0.9375 -0.96875 0  0.96875 -0.96875 0  1 -0.96875 0  -1 -0.9375 0  -0.96875 -0.9375 0  -0.9375 -0.9375 0  -0.90625 -0.9375 0  -0.875 -0.9375 0  -0.84375 -0.9375 0  -0.8125 -0.9375 0  -0.78125 -0.9375 0  -0.75 -0.9375 0  -0.71875 -0.9375 0  -0.6875 -0.9375 0  -0.65625 -0.9375 0  -0.625 -0.9375 0  -0.59375 -0.9375 0  -0.5625 -0.9375 0  -0.53125 -0.9375 0  -0.5 -0.9375 0  -0.46875 -0.9375 0  -0.4375 -0.9375 0  -0.40625 -0.9375 0  -0.375 -0.9375 0  -0.34375 -0.9375 0  -0.3125 -0.9375 0  -0.28125 -0.9375 0  -0.25 -0.9375 0  -0.21875 -0.9375 0  -0.1875 -0.9375 0  -0.15625 -0.9375 0  -0.125 -0.9375 0  -0.09375 -0.9375 0  -0.0625 -0.9375 0  -0.03125 -0.9375 0  0 -0.9375 0  0.03125 -0.9375 0  0.0625 -0.9375 0  0.09375 -0.9375 0  0.125 -0.9375 0  0.15625 -0.9375 0  0.1875 -0.9375 0  0.21875 -0.9375 0  0.25 -0.9375 0  0.28125 -0.9375 0  0.3125 -0.9375 0  0.34375 -0.9375 0  0.375 -0.9375 0  0.40625 -0.9375 0  0.4375 -0.9375 0  0.46875 -0.9375 0  0.5 -0.9375 0  0.53125 -0.9375 0  0.5625 -0.9375 0  0.59375 -0.9375 0  0.625 -0.9375 0  0.65625 -0.9375 0  0.6875 -0.9375 0  0.71875 -0.9375 0  0.75 -0.9375 0  0.78125 -0.9375 0  0.8125 -0.9375 0  0.84375 -0.9375 0  0.875 -0.9375 0  0.90625 -0.9375 0  0.9375 -0.9375 0  0.96875 -0.9375 0  1 -0.9375 0  -1 -0.90625 0  -0.96875 -0.90625 0  -0.9375 -0.90625 0  -0.90625 -0.90625 0  -0.875 -0.90625 0  -0.84375 -0.90625 0  -0.8125 -0.90625 0  -0.78125 -0.90625 0  -0.75 -0.90625 0  -0.71875 -0.90625 0  -0.6875 -0.90625 0  -0.65625 -0.90625 0  -0.625 -0.90625 0  -0.59375 -0.90625 0  -0.5625 -0.90625 0  -0.53125 -0.90625 0  -0.5 -0.90625 0  -0.46875 -0.90625 0  -0.4375 -0.90625 0  -0.40625 -0.90625 0  -0.375 -0.90625 0  -0.34375 -0.90625 0  -0.3125 -0.90625 0  -0.28125 -0.90625 0  -0.25 -0.90625 0  -0.21875 -0.90625 0  -0.1875 -0.90625 0  -0.15625 -0.90625 0  -0.125 -0.90625 0  -0.09375 -0.90625 0  -0.0625 -0.90625 0  -0.03125 -0.90625 0  0 -0.90625 0  0.03125 -0.90625 0  0.0625 -0.90625 0  0.09375 -0.90625 0  0.125 -0.90625 0  0.15625 -0.90625 0  0.1875 -0.90625 0  0.21875 -0.90625 0  0.25 -0.90625 0  0.28125 -0.90625 0  0.3125 -0.90625 0  0.34375 -0.90625 0  0.375 -0.90625 0  0.40625 -0.90625 0  0.4375 -0.90625 0  0.46875 -0.90625 0  0.5 -0.90625 0  0.53125 -0.90625 0  0.5625 -0.90625 0  0.59375 -0.90625 0  0.625 -0.90625 0  0.65625 -0.90625 0  0.6875 -0.90625 0  0.71875 -0.90625 0  0.75 -0.90625 0  0.78125 -0.90625 0  0.8125 -0.90625 0  0.84375 -0.90625 0  0.875 -0.90625 0  0.90625 -0.90625 0  0.9375 -0.90625 0  0.96875 -0.90625 0  1 -0.90625 0  -1 -0.875 0  -0.96875 -0.875 0  -0.9375 -0.875 0  -0.90625 -0.875 0  -0.875 -0.875 0  -0.84375 -0.875 0  -0.8125 -0.875 0  -0.78125 -0.875 0  -0.75 -0.875 0  -0.71875 -0.875 0  -0.6875 -0.875 0  -0.65625 -0.875 0  -0.625 -0.875 0  -0.59375 -0.875 0  -0.5625 -0.875 0  -0.53125 -0.875 0  -0.5 -0.875 0  -0.46875 -0.875 0  -0.4375 -0.875 0  -0.40625 -0.875 0  -0.375 -0.875 0  -0.34375 -0.875 0  -0.3125 -0.875 0  -0.28125 -0.875 0  -0.25 -0.875 0  -0.21875 -0.875 0  -0.1875 -0.875 0  -0.15625 -0.875 0  -0.125 -0.875 0  -0.09375 -0.875 0  -0.0625 -0.875 0  -0.03125 -0.875 0  0 -0.875 0  0.03125 -0.875 0  0.0625 -0.875 0  0.09375 -0.875 0  0.125 -0.875 0  0.15625 -0.875 0  0.1875 -0.875 0  0.21875 -0.875 0  0.25 -0.875 0  0.28125 -0.875 0  0.3125 -0.875 0  0.34375 -0.875 0  0.375 -0.875 0  0.40625 -0.875 0  0.4375 -0.875 0  0.46875 -0.875 0  0.5 -0.875 0  0.53125 -0.875 0  0.5625 -0.875 0  0.59375 -0.875 0  0.625 -0.875 0  0.65625 -0.875 0  0.6875 -0.875 0  0.71875 -0.875 0  0.75 -0.875 0  0.78125 -0.875 0  0.8125 -0.875 0  0.84375 -0.875 0  0.875 -0.875 0  0.90625 -0.875 0  0.9375 -0.875 0  0.96875 -0.875 0  1 -0.875 0  -1 -0.84375 0  -0.96875 -0.84375 0  -0.9375 -0.84375 0  -0.90625 -0.84375 0  -0.875 -0.84375 0  -0.84375 -0.84375 0  -0.8125 -0.84375 0  -0.78125 -0.84375 0  -0.75 -0.84375 0  -0.71875 -0.84375 0  -0.6875 -0.84375 0  -0.65625 -0.84375 0  -0.625 -0.84375 0  -0.59375 -0.84375 0  -0.5625 -0.84375 0  -0.53125 -0.84375 0  -0.5 -0.84375 0  -0.46875 -0.84375 0  -0.4375 -0.84375 0  -0.40625 -0.84375 0  -0.375 -0.84375 0  -0.34375 -0.84375 0  -0.3125 -0.84375 0  -0.28125 -0.84375 0  -0.25 -0.84375 0  -0.21875 -0.84375 0  -0.1875 -0.84375 0  -0.15625 -0.84375 0  -0.125 -0.84375 0  -0.09375 -0.84375 0  -0.0625 -0.84375 0  -0.03125 -0.84375 0  0 -0.84375 0  0.03125 -0.84375 0  0.0625 -0.84375 0  0.09375 -0.84375 0  0.125 -0.84375 0  0.15625 -0.84375 0  0.1875 -0.84375 0  0.21875 -0.84375 0  0.25 -0.84375 0  0.28125 -0.84375 0  0.3125 -0.84375 0  0.34375 -0.84375 0  0.375 -0.84375 0  0.40625 -0.84375 0  0.4375 -0.84375 0  0.46875 -0.84375 0  0.5 -0.84375 0  0.53125 -0.84375 0  0.5625 -0.84375 0  0.59375 -0.84375 0  0.625 -0.84375 0  0.65625 -0.84375 0  0.6875 -0.84375 0  0.71875 -0.84375 0  0.75 -0.84375 0  0.78125 -0.84375 0  0.8125 -0.84375 0  0.84375 -0.84375 0  0.875 -0.84375 0  0.90625 -0.84375 0  0.9375 -0.84375 0  0.96875 -0.84375 0  1 -0.84375 0  -1 -0.8125 0  -0.96875 -0.8125 0  -0.9375 -0.8125 0  -0.90625 -0.8125 0  -0.875 -0.8125 0  -0.84375 -0.8125 0  -0.8125 -0.8125 0  -0.78125 -0.8125 0  -0.75 -0.8125 0  -0.71875 -0.8125 0  -0.6875 -0.8125 0  -0.65625 -0.8125 0  -0.625 -0.8125 0  -0.59375 -0.8125 0  -0.5625 -0.8125 0  -0.53125 -0.8125 0  -0.5 -0.8125 0  -0.46875 -0.8125 0  -0.4375 -0.8125 0  -0.40625 -0.8125 0  -0.375 -0.8125 0  -0.34375 -0.8125 0  -0.3125 -0.8125 0  -0.28125 -0.8125 0  -0.25 -0.8125 0  -0.21875 -0.8125 0  -0.1875 -0.8125 0  -0.15625 -0.8125 0  -0.125 -0.8125 0  -0.09375 -0.8125 0  -0.0625 -0.8125 0  -0.03125 -0.8125 0  0 -0.8125 0  0.03125 -0.8125 0  0.0625 -0.8125 0  0.09375 -0.8125 0  0.125 -0.8125 0  0.15625 -0.8125 0  0.1875 -0.8125 0  0.21875 -0.8125 0  0.25 -0.8125 0  0.28125 -0.8125 0  0.3125 -0.8125 0  0.34375 -0.8125 0  0.375 -0.8125 0  0.40625 -0.8125 0  0.4375 -0.8125 0  0.46875 -0.8125 0  0.5 -0.8125 0  0.53125 -0.8125 0  0.5625 -0.8125 0  0.59375 -0.8125 0  0.625 -0.8125 0  0.65625 -0.8125 0  0.6875 -0.8125 0  0.71875 -0.8125 0  0.75 -0.8125 0  0.78125 -0.8125 0  0.8125 -0.8125 0  0.84375 -0.8125 0  0.875 -0.8125 0  0.90625 -0.8125 0  0.9375 -0.8125 0  0.96875 -0.8125 0  1 -0.8125 0  -1 -0.78125 0  -0.96875 -0.78125 0  -0.9375 -0.78125 0  -0.90625 -0.78125 0  -0.875 -0.78125 0  -0.84375 -0.78125 0  -0.8125 -0.78125 0  -0.78125 -0.78125 0  -0.75 -0.78125 0  -0.71875 -0.78125 0  -0.6875 -0.78125 0  -0.65625 -0.78125 0  -0.625 -0.78125 0  -0.59375 -0.78125 0  -0.5625 -0.78125 0  -0.53125 -0.78125 0  -0.5 -0.78125 0  -0.46875 -0.78125 0  -0.4375 -0.78125 0  -0.40625 -0.78125 0  -0.375 -0.78125 0  -0.34375 -0.78125 0  -0.3125 -0.78125 0  -0.28125 -0.78125 0  -0.25 -0.78125 0  -0.21875 -0.78125 0  -0.1875 -0.78125 0  -0.15625 -0.78125 0  -0.125 -0.78125 0  -0.09375 -0.78125 0  -0.0625 -0.78125 0  -0.03125 -0.78125 0  0 -0.78125 0  0.03125 -0.78125 0  0.0625 -0.78125 0  0.09375 -0.78125 0  0.125 -0.78125 0  0.15625 -0.78125 0  0.1875 -0.78125 0  0.21875 -0.78125 0  0.25 -0.78125 0  0.28125 -0.78125 0  0.3125 -0.78125 0  0.34375 -0.78125 0  0.375 -0.78125 0  0.40625 -0.78125 0  0.4375 -0.78125 0  0.46875 -0.78125 0  0.5 -0.78125 0  0.53125 -0.78125 0  0.5625 -0.78125 0  0.59375 -0.78125 0  0.625 -0.78125 0  0.65625 -0.78125 0  0.6875 -0.78125 0  0.71875 -0.78125 0  0.75 -0.78125 0  0.78125 -0.78125 0  0.8125 -0.78125 0  0.84375 -0.78125 0  0.875 -0.78125 0  0.90625 -0.78125 0  0.9375 -0.78125 0  0.96875 -0.78125 0  1 -0.78125 0  -1 -0.75 0  -0.96875 -0.75 0  -0.9375 -0.75 0  -0.90625 -0.75 0  -0.875 -0.75 0  -0.84375 -0.75 0  -0.8125 -0.75 0  -0.78125 -0.75 0  -0.75 -0.75 0  -0.71875 -0.75 0  -0.6875 -0.75 0  -0.65625 -0.75 0  -0.625 -0.75 0  -0.59375 -0.75 0  -0.5625 -0.75 0  -0.53125 -0.75 0  -0.5 -0.75 0  -0.46875 -0.75 0  -0.4375 -0.75 0  -0.40625 -0.75
[...]
<PointData  Scalars="f_15"> 
<DataArray  type="Float64"  Name="f_15"  format="ascii">-4.6295281141195821e-01  -4.5850505718304979e-01  -4.4533271919701206e-01  -4.2394200301551621e-01  -3.9515494186536532e-01  -3.6007780636258979e-01  -3.2005859115307728e-01  -2.7663521223429449e-01  -2.3147640570597902e-01  -1.8631759917766361e-01  -1.4289422025888082e-01  -1.0287500504936832e-01  -6.7797869546592809e-02  -3.9010808396441936e-02  -1.7620092214946158e-02  -4.4477542289084598e-03  0.0000000000000000e+00  -4.4477542289084598e-03  -1.7620092214946186e-02  -3.9010808396441964e-02  -6.7797869546592851e-02  -1.0287500504936835e-01  -1.4289422025888099e-01  -1.8631759917766372e-01  -2.3147640570597910e-01  -2.7663521223429449e-01  -3.2005859115307728e-01  -3.6007780636258985e-01  -3.9515494186536532e-01  -4.2394200301551621e-01  -4.4533271919701212e-01  -4.5850505718304979e-01  -4.6295281141195821e-01  -4.5850505718304979e-01  -4.4533271919701212e-01  -4.2394200301551621e-01  -3.9515494186536532e-01  -3.6007780636258985e-01  -3.2005859115307728e-01  -2.7663521223429449e-01  -2.3147640570597910e-01  -1.8631759917766372e-01  -1.4289422025888099e-01  -1.0287500504936835e-01  -6.7797869546592851e-02  -3.9010808396441964e-02  -1.7620092214946186e-02  -4.4477542289084598e-03  0.0000000000000000e+00  -4.4477542289084598e-03  -1.7620092214946158e-02  -3.9010808396441936e-02  -6.7797869546592809e-02  -1.0287500504936832e-01  -1.4289422025888082e-01  -1.8631759917766361e-01  -2.3147640570597902e-01  -2.7663521223429449e-01  -3.2005859115307728e-01  -3.6007780636258979e-01  -3.9515494186536532e-01  -4.2394200301551621e-01  -4.4533271919701206e-01  -4.5850505718304979e-01  -4.6295281141195821e-01  -4.5850505718304979e-01  -3.3160034523320042e-01  -2.9627536055651538e-01  -2.4177601283082423e-01  -1.7818700070959226e-01  -1.0762403301229957e-01  -3.2418483674993934e-02  4.5254606771391939e-02  1.2327510332472762e-01  1.9955906592217088e-01  2.7207814561494548e-01  3.3890362788894324e-01  3.9826238887142540e-01  4.4859486595761788e-01  4.8860828986055455e-01  5.1732104954649794e-01  5.3409606911390239e-01  5.3866204343471114e-01  5.3112193225427440e-01  5.1194794491889017e-01  4.8196210123913763e-01  4.4230104254199309e-01  3.9436396990124906e-01  3.3974331815658171e-01  2.8013994990108776e-01  2.1726789620868878e-01  1.5275778082895197e-01  8.8071161134284856e-02  2.4438442049487058e-02  -3.7170745783084179e-02  -9.6043153305933465e-02  -1.5169031663266985e-01  -2.0380246853835748e-01  -2.5220149047130802e-01  -2.9680249698211014e-01  -3.3758708572517765e-01  -3.7458576323339060e-01  -4.0786431209908780e-01  -4.3750973069399485e-01  -4.6361398026522177e-01  -4.8625699215537088e-01  -5.0549215610351517e-01  -5.2133805218653562e-01  -5.3377892950292694e-01  -5.4277473967927636e-01  -5.4827929766601635e-01  -5.5026364310617870e-01  -5.4874043538178174e-01  -5.4378512657248024e-01  -5.3554988268118353e-01  -5.2426756349577341e-01  -5.1024423893484516e-01  -4.9384161673835369e-01  -4.7545007379296211e-01  -4.5546467191213508e-01  -4.3424953127042409e-01  -4.1217998537526301e-01  -3.8955209303793981e-01  -3.6715917195544817e-01  -3.4532830471729231e-01  -3.2836015904391830e-01  -3.1344854541267109e-01  -3.2548028216839497e-01  -3.0947377309043334e-01  -4.5850505718304979e-01  -4.4533271919701206e-01  -3.1600871226780536e-01  -3.1683672964828535e-01  -2.7965078178194480e-01  -2.3706347295472199e-01  -1.8832987246027794e-01  -1.3536850135390671e-01  -7.9847600527344992e-02  -2.3429109556719833e-02  3.2234828177662968e-02  8.5518161609980256e-02  1.3485986360118149e-01  1.7881618888834702e-01  2.1611696464461252e-01  2.4571824477779475e-01  2.6684625129031087e-01  2.7902947637490577e-01  2.8211731825280872e-01  2.7628405096901915e-01  2.6201723975678459e-01  2.4008955868017945e-01  2.1151346738127927e-01  1.7747908840997342e-01  1.3927788405816968e-01  9.8217723686343086e-02  5.5538520615720004e-02  1.2339901270869589e-02  -3.0467838893994407e-02  -7.2182158194395094e-02  -1.1229550016842681e-01  -1.5045822573509299e-01  -1.8642943448755112e-01  -2.2002902879072245e-01  -2.5110154405611407e-01  -2.7949684944100606e-01  -3.0506741228121487e-01  -3.2767784929526705e-01  -3.4722108587430894e-01  -3.6363572681741524e-01  -3.7692083478162169e-01  -3.8714567485348600e-01  -3.9445327306047184e-01  -3.9905708703335763e-01  -4.0123073065837517e-01  -4.0129109452466333e-01  -3.9957625806736224e-01  -3.9642040412491758e-01  -3.9212902319731335e-01  -3.8695790983189471e-01  -3.8109939262645187e-01  -3.7467814109156339e-01  -3.6775736296733130e-01  -3.6035533596368935e-01  -3.5246799223797187e-01  -3.4410406535434901e-01  -3.3530437477469255e-01  -3.2624325958968098e-01  -3.1712722532592191e-01  -3.0885680086119560e-01  -3.0155696072542426e-01  -2.9985181905215924e-01  -2.9770722167951941e-01  -3.2302360348810732e-01  -2.9366314726257886e-01  -4.4533271919701206e-01  -4.2394200301551621e-01  -3.1116318546838573e-01  -3.0214307573441440e-01  -2.6130858604847884e-01  -2.1778305463921352e-01  -1.6794474365850282e-01  -1.1400385605424807e-01  -5.7453298250542607e-02  1.3872417397406257e-04  5.7179284529699684e-02  1.1206499024788366e-01  1.6322270152161145e-01  2.0916628962366360e-01  2.4856106663037850e-01  2.8028727363930839e-01  3.0349552248621786e-01  3.1764911150538944e-01  3.2254980416684792e-01  3.1834492991840385e-01  3.0551443329210987e-01  2.8483732703245412e-01  2.5733818834815214e-01  2.2421636027195563e-01  1.8676320751200115e-01  1.4627566670562503e-01  1.0397627933910961e-01  6.0949868649145568e-02  1.8104369737343175e-02  -2.3841460223970844e-02  -6.4346197757463947e-02  -1.0301694983825761e-01  -1.3957284054034022e-01  -1.7380952929503224e-01  -2.0557100093701322e-01  -2.3473155455156858e-01  -2.6118781376066103e-01  -2.8485845765857787e-01  -3.0568842326114282e-01  -3.2365445652444275e-01  -3.3876960598486494e-01  -3.5108524825050202e-01  -3.6069008138730940e-01  -3.6770623900005800e-01  -3.7228308997860643e-01  -3.7458960348077663e-01  -3.7480627059540844e-01  -3.7311764533316333e-01  -3.6970641240958801e-01  -3.6474972318965332e-01  -3.5841814316448434e-01  -3.5087738513129069e-01  -3.4229237708124421e-01  -3.3283441706334183e-01  -3.2268833148456277e-01  -3.1207171410825818e-01  -3.0123235802313597e-01  -2.9055029251065961e-01  -2.8036691218537185e-01  -2.7177614599723909e-01  -2.6457489743982482e-01  -2.6393894260460565e-01  -2.6007705144610760e-01  -2.8713086965121482e-01  -2.3414075634645731e-01  -4.2394200301551621e-01  -3.9515494186536532e-01  -3.2020816557419562e-01  -3.0030724367000522e-01  -2.6119731642598054e-01  -2.1968709439164474e-01  -1.7349671693424235e-01  -1.2450986387324381e-01  -7.3822077835347999e-02  -2.2709337149232355e-02  2.7539958265265743e-02  7.5634735422360405e-02  1.2031693473794579e-01  1.6040617913464741e-01  1.9485007535440688e-01  2.2277425583171798e-01  2.4352634836165055e-01  2.5670897053030178e-01  2.6219805103173399e-01  2.6014422982256746e-01  2.5095646837072200e-01  2.3526864953215407e-01  2.1389160445924441e-01  1.8775490034796413e-01  1.5784423725083463e-01  1.2514124865610574e-01  9.0572185614115300e-02  5.4970473012891020e-02  1.9055542962790557e-02  -1.6572499103569900e-02  -5.1425348605315307e-02  -8.5110608413822703e-02  -1.1731242869266259e-01  -1.4777295448993935e-01  -1.7627754541500759e-01  -2.0264518511640983e-01  -2.2672402344775094e-01  -2.4839099612594695e-01  -2.6755389857656758e-01  -2.8415430462248797e-01  -2.9816996658848560e-01  -3.0961583229053902e-01  -3.1854320149609427e-01  -3.2503696207199473e-01  -3.2921105964347591e-01  -3.3120264039203934e-01  -3.3116542150596684e-01  -3.2926306996838772e-01  -3.2566341129814341e-01  -3.2053435630430832e-01  -3.1404222257351933e-01  -3.0635303564435357e-01  -2.9763664611696516e-01  -2.8807479160659866e-01  -2.7786909684348193e-01  -2.6726331718345120e-01  -2.5653538000230397e-01  -2.4611508622546513e-01  -2.3634252951462592e-01  -2.2842409703716984e-01  -2.2173240041806982e-01  -2.2216468443448487e-01  -2.1605404015268503e-01  -2.4546838949605088e-01  -1.7145912880101313e-01  -3.9515494186536532e-01  -3.6007780636258979e-01  -3.3698736801723461e-01  -3.0344845209099036e-01  -2.6339748176215860e-01  -2.2110351794119321e-01  -1.7578286539529825e-01  -1.2853878238300204e-01  -8.0226157836872369e-02  -3.1888576837791109e-02  1.5404971047720796e-02  6.0565139954194387e-02  1.0252046674653707e-01  1.4025802090548484e-01  1.7286818663618467e-01  1.9958929271247194e-01  2.1984747625263340e-01  2.3328720932906616e-01  2.3978887267438201e-01  2.3947098324791716e-01  2.3267641517115065e-01  2.1994358742021231e-01  2.0196543272111830e-01  1.7954032910406378e-01  1.5352023852434854e-01  1.2476141798301472e-01  9.4082509746692675e-02  6.2233347268943903e-02  2.9876001601173863e-02  -2.4223842983649730e-03  -3.4186980757928878e-02  -6.5025899251068178e-02  -9.4617382825842741e-02  -1.2269654329326909e-01  -1.4904388222226803e-01  -1.7347681919546246e-01  -1.9584455177612609e-01  -2.1602575745862992e-01  -2.3392828015013947e-01  -2.4948972755821200e-01  -2.6267810126717456e-01  -2.7349173050810577e-01  -2.8195818043697979e-01  -2.8813198475796425e-01  -2.9209140572946735e-01  -2.9393448960037899e-01  -2.9377494554560157e-01  -2.9173833193377668e-01  -2.8795916375268893e-01  -2.8257937215955559e-01  -2.7574850587792638e-01  -2.6762590815710796e-01  -2.5838461725703393e-01  -2.4821831278430437e-01  -2.3734675562491173e-01  -2.2603716384305031e-01  -2.1458634768191762e-01  -2.0345497175700269e-01  -1.9294717099362033e-01  -1.8437289278799124e-01  -1.7661514968668318e-01  -1.7649931558967166e-01  -1.6625211194271097e-01  -1.9726187890750102e-01  -1.0097705723462000e-01  -3.6007780636258979e-01  -3.2005859115307728e-01  -3.5747326921188000e-01  -3.1012210192757922e-01  -2.6980909788904472e-01  -2.2710352655728405e-01  -1.8280805236930472e-01  -1.3747159797678588e-01  -9.1784642051517235e-02  -4.6564211687864815e-02  -2.6739876874255003e-03  3.8999407856422537e-02  7.7586231074106587e-02  1.1226961449049071e-01  1.4232247505129336e-01  1.6714235112382622e-01  1.8628124364266169e-01  1.9946756832291362e-01  2.0661778083765198e-01  2.0783633417422723e-01  2.0340374765457961e-01  1.9375397957416191e-01  1.7944336210213799e-01  1.6111433727413838e-01  1.3945758156275306e-01  1.1517611700116814e-01  8.8954366189480411e-02  6.1434236630757741e-02  3.3199144086147436e-02  4.7658136193151355e-03  -2.3417246129986379e-02  -5.0966294973341542e-02  -7.7555883184111218e-02  -1.0291121076648982e-01  -1.2680079733175487e-01  -1.4903045603821566e-01  -1.6943895759594352e-01  -1.8789535769847115e-01  -2.0429755759226456e-01  -2.1857159919754368e-01  -2.3067110520559947e-01  -2.4057648841555970e-01  -2.4829360906078629e-01  -2.5385185361912610e-01  -2.5730165386926490e-01  -2.5871172365331851e-01  -2.5816625645331354e-01  -2.5576251658469634e-01  -2.5160912339812119e-01  -2.4582543985892172e-01  -2.3854221466072506e-01  -2.2990381702936610e-01  -2.2007165181419575e-01  -2.0923051379185242e-01  -1.9759238044824043e-01  -1.8541844956238249e-01  -1.7299230531326862e-01  -1.6077526238907594e-01  -1.4900157834547925e-01  -1.3908261040556422e-01  -1.2935868578243548e-01  -1.2777968141822027e-01  -1.1224956599943807e-01  -1.4457323737390290e-01  -2.6069176554413032e-02  -3.2005859115307728e-01  -2.7663521223429449e-01  -3.7937987259866873e-01  -3.1855586729652480e-01  -2.7850990162833283e-01  -2.3530570428157754e-01  -1.9173703104117035e-01  -1.4783519098406608e-01  -1.0414538884941475e-01  -6.1296123221915806e-02  -1.9982082338151953e-02  1.9076862452371557e-02  5.5171213879490477e-02  8.7634263126793149e-02  1.1587354632719452e-01  1.3939935263554878e-01  1.5784867301100336e-01  1.7100260204544551e-01  1.7879558684061936e-01  1.8131556243503841e-01  1.7879491023490232e-01  1.7159311918884709e-01  1.6017289154146258e-01  1.4507207402093428e-01  1.2687409861670540e-01  1.0617957375434578e-01  8.3581263988227128e-02  5.9644056008657055e-02  3.4890709853778984e-02  9.7934171633714071e-03  -1.5229493640511332e-02  -3.9812820747177950e-02  -6.3641063623961672e-02  -8.6443623016401988e-02  -1.0798973311530909e-01  -1.2808389743711121e-01  -1.4656223487671285e-01  -1.6328981323271397e-01  -1.7815880916478782e-01  -1.9108719818515155e-01  -2.0201765630904381e-01  -2.1091639629241302e-01  -2.1777176839900328e-01  -2.2259256271802719e-01  -2.2540607029949936e-01  -2.2625604779631620e-01  -2.2520080966612158e-01  -2.2231168734435208e-01  -2.1767211984797843e-01  -2.1137758475008889e-01  -2.0353652049114962e-01  -1.9427245779146518e-01  -1.8372698669539975e-01  -1.7206548873176167e-01  -1.5947944388788243e-01  -1.4620930188596429e-01  -1.3250890998967524e-01  -1.1882430803701206e-01  -1.0530036925552916e-01  -9.3452963284872723e-02  -8.1040445541436842e-02  -7.7296812359590933e-02  -5.5636217341897415e-02  -8.9107386335441977e-02  5.1284397210173763e-02  -2.7663521223429449e-01  -2.3147640570597902e-01  -4.0158704205021878e-01  -3.2767927458257678e-01  -2.8855725705182361e-01  -2.4504155833704536e-01  -2.0221342251203295e-01  -1.5959670010275814e-01  -1.1765977429696363e-01  -7.6883157954408532e-02  -3.7822360354982994e-02  -1.0571593781367405e-03  3.2839136801295819e-02  6.3329176204755866e-02  8.9938131828042917e-02  1.1227683704797915e-01  1.3006053128253189e-01  1.4312200839231881e-01  1.5141827118981160e-01  1.5503017023902871e-01  1.5415518725533289e-01  1.4909406057926280e-01  1.4023260876115792e-01  1.2802041370193193e-01  1.1294830703107378e-01  9.5526466006820770e-02  7.6264746386114704e-02  5.5656380182470405e-02  3.4165712543229532e-02  1.2220077199993743e-02  -9.7945066198760512e-03  -3.1534495105728678e-02  -5.2697688617167747e-02  -7.3020687952194838e-02  -9.2275729053852035e-02  -1.1026747594827008e-01  -1.2683016118266874e-01  -1.4182520182232741e-01  -1.5513929957177669e-01  -1.6668287122917747e-01  -1.7638867286171978e-01  -1.8421043071908225e-01  -1.9012141170150385e-01  -1.9411286267715239e-01  -1.9619239933033453e-01  -1.9638240456375936e-01  -1.9471862450075661e-01  -1.9124909750094440e-01  -1.8603361575452609e-01  -1.7914384440500433e-01  -1.7066421456892220e-01  -1.6069378827261266e-01  -1.4934872050552639e-01  -1.3676745407324928e-01  -1.2311177341272375e-01  -1.0859074203579094e-01  -9.3417027471754580e-02  -7.8009865673669215e-02  -6.2412442731334443e-02  -4.8244906583568441e-02  -3.2662161766529668e-02  -2.6288680153385900e-02  2.0090699876329681e-03  -3.2539795488206576e-02  1.2896492627912390e-01  -2.3147640570597902e-01  -1.8631759917766361e-01  -4.2356121045534967e-01  -3.3686699359573868e-01  -2.9925558394612156e-01  -2.5557114444327750e-01  -2.1346475804887247e-01  -1.7196278804001511e-01  -1.3151029664960009e-01  -9.2468336805990148e-02  -5.5281344770199428e-02  -2.0414496644974349e-02  1.1671020246469580e-02  4.0543974476659340e-02  6.5825281148906623e-02  8.7206910933977949e-02  1.0446680343809320e-01  1.1747913942493306e-01  1.2621940469252083e-01  1.3076404329676605e-01  1.3128481979112988e-01  1.2803852040251326e-01  1.2135292368959517e-01  1.1161033181585701e-01  9.9230008917788839e-02  8.4650925098088539e-02  6.8315958502715726e-02  5.0658477038974532e-02  3.2091808544381657e-02  1.3001785959356284e-02  -6.2578145595895826e-03  -2.5367349505404434e-02  -4.4041466713144621e-02  -6.2027956269456827e-02  -7.9105850637182021e-02  -9.5083236391466278e-02  -1.0979507166992529e-01  -1.2310119459345563e-01  -1.3488454999009861e-01  -1.4504962230309140e-01  -1.5352097559147934e-01  -1.6024185126893109e-01  -1.6517274237914389e-01  -1.6828996554662107e-01  -1.6958422668098125e-01  -1.6905929340465212e-01  -1.6673084045577349e-01  -1.6262561896308014e-01  -1.5678103308760277e-01  -1.4924526719331679e-01  -1.4007799457271045e-01  -1.2935192726205233e-01  -1.1715476284222827e-01  -1.0359389628303645e-01  -8.8796421669821823e-02  -7.2934017559609668e-02  -5.6172108711054193e-02  -3.8895507751908774e-02  -2.1040822977871569e-02  -4.3261529632228060e-03  1.4693217994722505e-02  2.3963156620728728e-02  5.9073932240731312e-02  2.3463603488055703e-02  2.0490232932428054e-01  -1.8631759917766361e-01  -1.4289422025888082e-01  -4.4497584549599528e-01  -3.4576494157991533e-01  -3.1013609162414757e-01  -2.6639022345373453e-01  -2.2500158883091737e-01  -1.8448667880188799e-01  -1.4531139397803408e-01  -1.0774359630547692e-01  -7.2141858814495502e-02  -3.8878199422996286e-02  -8.3213460146350521e-03  1.9185741013549164e-02  4.3344092656147262e-02  6.3914051011937825e-02  8.0727080867044984e-02  9.3693705788416182e-02  1.0280729528221849e-01  1.0814360491585001e-01  1.0985628305012914e-01  1.0816880345563472e-01  1.0336358180745385e-01  9.5769179051007597e-02  8.5746622259534250e-02  7.3675813639486762e-02  5.9942919389835661e-02  4.4929393696884846e-02  2.9003083506363180e-02  1.2511571034512033e-02  -4.2222939517645676e-03  -2.0902924916012949e-02  -3.7262950220391382e-02  -5.3062998383425319e-02  -6.8090716104709056e-02  -8.2159353897866355e-02  -9.5106177295556787e-02  -1.0679085512794395e-01  -1.1709391213687077e-01  -1.2591525262070941e-01  -1.3317275035863141e-01  -1.3880086169162062e-01  -1.4274926187475057e-01  -1.4498148822295973e-01  -1.4547364291046047e-01  -1.4421318580165066e-01  -1.4119791385515090e-01  -1.3643518869933238e-01  -1.2994151368541676e-01  -1.2174252789053264e-01  -1.1187348419494288e-01  -1.0038042466115495e-01  -8.7321676038354640e-02  -7.2772065172940756e-02  -5.6822108270856431e-02  -3.9603455615844621e-02  -2.1232325731942184e-02  -2.0541049538737740e-03  1.8098814870124574e-02  3.7424552041628527e-02  5.9932128604636502e-02  7.2177969090173030e-02  1.1394234669669133e-01  7.7265424722354065e-02  2.7707344447764687e-01  -1.4289422025888082e-01  -1.0287500504936832e-01  -4.6553072434158493e-01  -3.5418337598017813e-01  -3.2086295317510033e-01  -2.7711305609366399e-01  -2.3642309721986293e-01  -1.9677693436081847e-01  -1.5869766569197896e-01  -1.2237942592341659e-01  -8.8114840573288708e-02  -5.6200320206881330e-02  -2.6928431528969825e-02  -5.6870320723630412e-04  2.2646851755587699e-02  4.2535945782621376e-02  5.8975259876935318e-02  7.1906552185626485e-02  8.1339463807410542e-02  8.7351023428831248e-02  9.0082036674040869e-02  8.9730744101839566e-02  8.6544305185772635e-02  8.0808794676432108e-02  7.2838451680144412e-02  6.2964919454145299e-02  5.1527119639770823e-02  3.8862283682674470e-02  2.5298474964191870e-02  1.1148776196219038e-02  -3.2928709691038950e-03  -1.7754306201494773e-02  -3.1986509218964003e-02  -4.5763949610216285e-02  -5.8884213948212173e-02  -7.1167156411934385e-02  -8.2453776200395679e-02  -9.2604958019807102e-02  -1.0150016384531868e-01  -1.0903611493814587e-01  -1.1512547827243078e-01  -1.1969555959695921e-01  -1.2268700408917048e-01  -1.2405252181568538e-01  -1.2375566055636218e-01  -1.2176967458440584e-01  -1.1807653776556737e-01  -1.1266616608453828e-01  -1.0553590611981349e-01  -9.6690365420328050e-02  -8.6141626367668145e-02  -7.3910078580263938e-02  -6.0025497828377905e-02  -4.4530796673677833e-02  -2.7480616671108675e-02  -8.9668160292624925e-03  1.0941945784226425e-02  3.1942325678182594e-02  5.4296344002401763e-02  7.6140427846750847e-02  1.0197769764506960e-01  1.1710251343979951e-01  1.6503230528714535e-01  1.2729157167617100e-01  3.4355052440630218e-01  -1.0287500504936832e-01  -6.7797869546592809e-02  -4.8488537997411191e-01  -3.6203208004870313e-01  -3.3117806013614204e-01  -2.8743819446475927e-01  -2.4741132295729912e-01  -2.0852619738401013e-01  -1.7138974678345259e-01  -1.3613566385609591e-01  -1.0300612220411566e-01  -7.2235816886297446e-02  -4.4054180333825459e-02  -1.8669156482437537e-02  3.7437621297366900e-03  2.3051036421474581e-02  3.9168154260472231e-02  5.2064234661565373e-02  6.1764036318906479e-02  6.8347414575552379e-02  7.1946377038710790e-02  7.2740054783790892e-02  7.0947999459701511e-02  6.6822325813132855e-02  6.0639242977087254e-02  5.2690519957348005e-02  4.3275369508884089e-02  3.2693138