<?xml version="1.0"?>
<VTKFile type="UnstructuredGrid"  version="0.1"  >
<UnstructuredGrid>
<Piece  NumberOfPoints="4225" NumberOfCells="8192">
<Points>
<DataArray  type="Float64"  NumberOfComponents="3"  format="ascii">-1 -1 0  -0.96875 -1 0  -0.9375 -1 0  -0.90625 -1 0  -0.875 -1 0  -0.84375 -1 0  -0.8125 -1 0  -0.78125 -1 0  -0.75 -1 0  -0.71875 -1 0  -0.6875 -1 0  -0.65625 -1 0  -0.625 -1 0  -0.59375 -1 0  -0.5625 -1 0  -0.53125 -1 0  -0.5 -1 0  -0.46875 -1 0  -0.4375 -1 0  -0.40625 -1 0  -0.375 -1 0  -0.34375 -1 0  -0.3125 -1 0  -0.28125 -1 0  -0.25 -1 0  -0.21875 -1 0  -0.1875 -1 0  -0.15625 -1 0  -0.125 -1 0  -0.09375 -1 0  -0.0625 -1 0  -0.03125 -1 0  0 -1 0  0.03125 -1 0  0.0625 -1 0  0.09375 -1 0  0.125 -1 0  0.15625 -1 0  0.1875 -1 0  0.21875 -1 0  0.25 -1 0  0.28125 -1 0  0.3125 -1 0  0.34375 -1 0  0.375 -1 0  0.40625 -1 0  0.4375 -1 0  0.46875 -1 0  0.5 -1 0  0.53125 -1 0  0.5625 -1 0  0.59375 -1 0  0.625 -1 0  0.65625 -1 0  0.6875 -1 0  0.71875 -1 0  0.75 -1 0  0.78125 -1 0  0.8125 -1 0  0.84375 -1 0  0.875 -1 0  0.90625 -1 0  0.9375 -1 0  0.96875 -1 0  1 -1 0  -1 -0.96875 0  -0.96875 -0.96875 0  -0.9375 -0.96875 0  -0.90625 -0.96875 0  -0.875 -0.96875 0  -0.84375 -0.96875 0  -0.8125 -0.96875 0  -0.78125 -0.96875 0  -0.75 -0.96875 0  -0.71875 -0.96875 0  -0.6875 -0.96875 0  -0.65625 -0.96875 0  -0.625 -0.96875 0  -0.59375 -0.96875 0  -0.5625 -0.96875 0  -0.53125 -0.96875 0  -0.5 -0.96875 0  -0.46875 -0.96875 0  -0.4375 -0.96875 0  -0.40625 -0.96875 0  -0.375 -0.96875 0  -0.34375 -0.96875 0  -0.3125 -0.96875 0  -0.28125 -0.96875 0  -0.25 -0.96875 0  -0.21875 -0.96875 0  -0.1875 -0.96875 0  -0.15625 -0.96875 0  -0.125 -0.96875 0  -0.09375 -0.96875 0  -0.0625 -0.96875 0  -0.03125 -0.96875 0  0 -0.96875 0  0.03125 -0.96875 0  0.0625 -0.96875 0  0.09375 -0.96875 0  0.125 -0.96875 0  0.15625 -0.96875 0  0.1875 -0.96875 0  0.21875 -0.96875 0  0.25 -0.96875 0  0.28125 -0.96875 0  0.3125 -0.96875 0  0.34375 -0.96875 0  0.375 -0.96875 0  0.40625 -0.96875 0  0.4375 -0.96875 0  0.46875 -0.96875 0  0.5 -0.96875 0  0.53125 -0.96875 0  0.5625 -0.96875 0  0.59375 -0.96875 0  0.625 -0.96875 0  0.65625 -0.96875 0  0.6875 -0.96875 0  0.71875 -0.96875 0  0.75 -0.96875 0  0.78125 -0.96875 0  0.8125 -0.96875 0  0.84375 -0.96875 0  0.875 -0.96875 0  0.90625 -0.96875 0  0.9375 -0.96875 0  0.96875 -0.96875 0  1 -0.96875 0  -1 -0.9375 0  -0.96875 -0.9375 0  -0.9375 -0.9375 0  -0.90625 -0.9375 0  -0.875 -0.9375 0  -0.84375 -0.9375 0  -0.8125 -0.9375 0  -0.78125 -0.9375 0  -0.75 -0.9375 0  -0.71875 -0.9375 0  -0.6875 -0.9375 0  -0.65625 -0.9375 0  -0.625 -0.9375 0  -0.59375 -0.9375 0  -0.5625 -0.9375 0  -0.53125 -0.9375 0  -0.5 -0.9375 0  -0.46875 -0.9375 0  -0.4375 -0.9375 0  -0.40625 -0.9375 0  -0.375 -0.9375 0  -0.34375 -0.9375 0  -0.3125 -0.9375 0  -0.28125 -0.9375 0  -0.25 -0.9375 0  -0.21875 -0.9375 0  -0.1875 -0.9375 0  -0.15625 -0.9375 0  -0.125 -0.9375 0  -0.09375 -0.9375 0  -0.0625 -0.9375 0  -0.03125 -0.9375 0  0 -0.9375 0  0.03125 -0.9375 0  0.0625 -0.9375 0  0.09375 -0.9375 0  0.125 -0.9375 0  0.15625 -0.9375 0  0.1875 -0.9375 0  0.21875 -0.9375 0  0.25 -0.9375 0  0.28125 -0.9375 0  0.3125 -0.9375 0  0.34375 -0.9375 0  0.375 -0.9375 0  0.40625 -0.9375 0  0.4375 -0.9375 0  0.46875 -0.9375 0  0.5 -0.9375 0  0.53125 -0.9375 0  0.5625 -0.9375 0  0.59375 -0.9375 0  0.625 -0.9375 0  0.65625 -0.9375 0  0.6875 -0.9375 0  0.71875 -0.9375 0  0.75 -0.9375 0  0.78125 -0.9375 0  0.8125 -0.9375 0  0.84375 -0.9375 0  0.875 -0.9375 0  0.90625 -0.9375 0  0.9375 -0.9375 0  0.96875 -0.9375 0  1 -0.9375 0  -1 -0.90625 0  -0.96875 -0.90625 0  -0.9375 -0.90625 0  -0.90625 -0.90625 0  -0.875 -0.90625 0  -0.84375 -0.90625 0  -0.8125 -0.90625 0  -0.78125 -0.90625 0  -0.75 -0.90625 0  -0.71875 -0.90625 0  -0.6875 -0.90625 0  -0.65625 -0.90625 0  -0.625 -0.90625 0  -0.59375 -0.90625 0  -0.5625 -0.90625 0  -0.53125 -0.90625 0  -0.5 -0.90625 0  -0.46875 -0.90625 0  -0.4375 -0.90625 0  -0.40625 -0.90625 0  -0.375 -0.90625 0  -0.34375 -0.90625 0  -0.3125 -0.90625 0  -0.28125 -0.90625 0  -0.25 -0.90625 0  -0.21875 -0.90625 0  -0.1875 -0.90625 0  -0.15625 -0.90625 0  -0.125 -0.90625 0  -0.09375 -0.90625 0  -0.0625 -0.90625 0  -0.03125 -0.90625 0  0 -0.90625 0  0.03125 -0.90625 0  0.0625 -0.90625 0  0.09375 -0.90625 0  0.125 -0.90625 0  0.15625 -0.90625 0  0.1875 -0.90625 0  0.21875 -0.90625 0  0.25 -0.90625 0  0.28125 -0.90625 0  0.3125 -0.90625 0  0.34375 -0.90625 0  0.375 -0.90625 0  0.40625 -0.90625 0  0.4375 -0.90625 0  0.46875 -0.90625 0  0.5 -0.90625 0  0.53125 -0.90625 0  0.5625 -0.90625 0  0.59375 -0.90625 0  0.625 -0.90625 0  0.65625 -0.90625 0  0.6875 -0.90625 0  0.71875 -0.90625 0  0.75 -0.90625 0  0.78125 -0.90625 0  0.8125 -0.90625 0  0.84375 -0.90625 0  0.875 -0.90625 0  0.90625 -0.90625 0  0.9375 -0.90625 0  0.96875 -0.90625 0  1 -0.90625 0  -1 -0.875 0  -0.96875 -0.875 0  -0.9375 -0.875 0  -0.90625 -0.875 0  -0.875 -0.875 0  -0.84375 -0.875 0  -0.8125 -0.875 0  -0.78125 -0.875 0  -0.75 -0.875 0  -0.71875 -0.875 0  -0.6875 -0.875 0  -0.65625 -0.875 0  -0.625 -0.875 0  -0.59375 -0.875 0  -0.5625 -0.875 0  -0.53125 -0.875 0  -0.5 -0.875 0  -0.46875 -0.875 0  -0.4375 -0.875 0  -0.40625 -0.875 0  -0.375 -0.875 0  -0.34375 -0.875 0  -0.3125 -0.875 0  -0.28125 -0.875 0  -0.25 -0.875 0  -0.21875 -0.875 0  -0.1875 -0.875 0  -0.15625 -0.875 0  -0.125 -0.875 0  -0.09375 -0.875 0  -0.0625 -0.875 0  -0.03125 -0.875 0  0 -0.875 0  0.03125 -0.875 0  0.0625 -0.875 0  0.09375 -0.875 0  0.125 -0.875 0  0.15625 -0.875 0  0.1875 -0.875 0  0.21875 -0.875 0  0.25 -0.875 0  0.28125 -0.875 0  0.3125 -0.875 0  0.34375 -0.875 0  0.375 -0.875 0  0.40625 -0.875 0  0.4375 -0.875 0  0.46875 -0.875 0  0.5 -0.875 0  0.53125 -0.875 0  0.5625 -0.875 0  0.59375 -0.875 0  0.625 -0.875 0  0.65625 -0.875 0  0.6875 -0.875 0  0.71875 -0.875 0  0.75 -0.875 0  0.78125 -0.875 0  0.8125 -0.875 0  0.84375 -0.875 0  0.875 -0.875 0  0.90625 -0.875 0  0.9375 -0.875 0  0.96875 -0.875 0  1 -0.875 0  -1 -0.84375 0  -0.96875 -0.84375 0  -0.9375 -0.84375 0  -0.90625 -0.84375 0  -0.875 -0.84375 0  -0.84375 -0.84375 0  -0.8125 -0.84375 0  -0.78125 -0.84375 0  -0.75 -0.84375 0  -0.71875 -0.84375 0  -0.6875 -0.84375 0  -0.65625 -0.84375 0  -0.625 -0.84375 0  -0.59375 -0.84375 0  -0.5625 -0.84375 0  -0.53125 -0.84375 0  -0.5 -0.84375 0  -0.46875 -0.84375 0  -0.4375 -0.84375 0  -0.40625 -0.84375 0  -0.375 -0.84375 0  -0.34375 -0.84375 0  -0.3125 -0.84375 0  -0.28125 -0.84375 0  -0.25 -0.84375 0  -0.21875 -0.84375 0  -0.1875 -0.84375 0  -0.15625 -0.84375 0  -0.125 -0.84375 0  -0.09375 -0.84375 0  -0.0625 -0.84375 0  -0.03125 -0.84375 0  0 -0.84375 0  0.03125 -0.84375 0  0.0625 -0.84375 0  0.09375 -0.84375 0  0.125 -0.84375 0  0.15625 -0.84375 0  0.1875 -0.84375 0  0.21875 -0.84375 0  0.25 -0.84375 0  0.28125 -0.84375 0  0.3125 -0.84375 0  0.34375 -0.84375 0  0.375 -0.84375 0  0.40625 -0.84375 0  0.4375 -0.84375 0  0.46875 -0.84375 0  0.5 -0.84375 0  0.53125 -0.84375 0  0.5625 -0.84375 0  0.59375 -0.84375 0  0.625 -0.84375 0  0.65625 -0.84375 0  0.6875 -0.84375 0  0.71875 -0.84375 0  0.75 -0.84375 0  0.78125 -0.84375 0  0.8125 -0.84375 0  0.84375 -0.84375 0  0.875 -0.84375 0  0.90625 -0.84375 0  0.9375 -0.84375 0  0.96875 -0.84375 0  1 -0.84375 0  -1 -0.8125 0  -0.96875 -0.8125 0  -0.9375 -0.8125 0  -0.90625 -0.8125 0  -0.875 -0.8125 0  -0.84375 -0.8125 0  -0.8125 -0.8125 0  -0.78125 -0.8125 0  -0.75 -0.8125 0  -0.71875 -0.8125 0  -0.6875 -0.8125 0  -0.65625 -0.8125 0  -0.625 -0.8125 0  -0.59375 -0.8125 0  -0.5625 -0.8125 0  -0.53125 -0.8125 0  -0.5 -0.8125 0  -0.46875 -0.8125 0  -0.4375 -0.8125 0  -0.40625 -0.8125 0  -0.375 -0.8125 0  -0.34375 -0.8125 0  -0.3125 -0.8125 0  -0.28125 -0.8125 0  -0.25 -0.8125 0  -0.21875 -0.8125 0  -0.1875 -0.8125 0  -0.15625 -0.8125 0  -0.125 -0.8125 0  -0.09375 -0.8125 0  -0.0625 -0.8125 0  -0.03125 -0.8125 0  0 -0.8125 0  0.03125 -0.8125 0  0.0625 -0.8125 0  0.09375 -0.8125 0  0.125 -0.8125 0  0.15625 -0.8125 0  0.1875 -0.8125 0  0.21875 -0.8125 0  0.25 -0.8125 0  0.28125 -0.8125 0  0.3125 -0.8125 0  0.34375 -0.8125 0  0.375 -0.8125 0  0.40625 -0.8125 0  0.4375 -0.8125 0  0.46875 -0.8125 0  0.5 -0.8125 0  0.53125 -0.8125 0  0.5625 -0.8125 0  0.59375 -0.8125 0  0.625 -0.8125 0  0.65625 -0.8125 0  0.6875 -0.8125 0  0.71875 -0.8125 0  0.75 -0.8125 0  0.78125 -0.8125 0  0.8125 -0.8125 0  0.84375 -0.8125 0  0.875 -0.8125 0  0.90625 -0.8125 0  0.9375 -0.8125 0  0.96875 -0.8125 0  1 -0.8125 0  -1 -0.78125 0  -0.96875 -0.78125 0  -0.9375 -0.78125 0  -0.90625 -0.78125 0  -0.875 -0.78125 0  -0.84375 -0.78125 0  -0.8125 -0.78125 0  -0.78125 -0.78125 0  -0.75 -0.78125 0  -0.71875 -0.78125 0  -0.6875 -0.78125 0  -0.65625 -0.78125 0  -0.625 -0.78125 0  -0.59375 -0.78125 0  -0.5625 -0.78125 0  -0.53125 -0.78125 0  -0.5 -0.78125 0  -0.46875 -0.78125 0  -0.4375 -0.78125 0  -0.40625 -0.78125 0  -0.375 -0.78125 0  -0.34375 -0.78125 0  -0.3125 -0.78125 0  -0.28125 -0.78125 0  -0.25 -0.78125 0  -0.21875 -0.78125 0  -0.1875 -0.78125 0  -0.15625 -0.78125 0  -0.125 -0.78125 0  -0.09375 -0.78125 0  -0.0625 -0.78125 0  -0.03125 -0.78125 0  0 -0.78125 0  0.03125 -0.78125 0  0.0625 -0.78125 0  0.09375 -0.78125 0  0.125 -0.78125 0  0.15625 -0.78125 0  0.1875 -0.78125 0  0.21875 -0.78125 0  0.25 -0.78125 0  0.28125 -0.78125 0  0.3125 -0.78125 0  0.34375 -0.78125 0  0.375 -0.78125 0  0.40625 -0.78125 0  0.4375 -0.78125 0  0.46875 -0.78125 0  0.5 -0.78125 0  0.53125 -0.78125 0  0.5625 -0.78125 0  0.59375 -0.78125 0  0.625 -0.78125 0  0.65625 -0.78125 0  0.6875 -0.78125 0  0.71875 -0.78125 0  0.75 -0.78125 0  0.78125 -0.78125 0  0.8125 -0.78125 0  0.84375 -0.78125 0  0.875 -0.78125 0  0.90625 -0.78125 0  0.9375 -0.78125 0  0.96875 -0.78125 0  1 -0.78125 0  -1 -0.75 0  -0.96875 -0.75 0  -0.9375 -0.75 0  -0.90625 -0.75 0  -0.875 -0.75 0  -0.84375 -0.75 0  -0.8125 -0.75 0  -0.78125 -0.75 0  -0.75 -0.75 0  -0.71875 -0.75 0  -0.6875 -0.75 0  -0.65625 -0.75 0  -0.625 -0.75 0  -0.59375 -0.75 0  -0.5625 -0.75 0  -0.53125 -0.75 0  -0.5 -0.75 0  -0.46875 -0.75 0  -0.4375 -0.75 0  -0.40625 -0.75
[...]
<PointData  Scalars="f_15"> 
<DataArray  type="Float64"  Name="f_15"  format="ascii">-4.7423688436777794e-01  -4.6968071998999178e-01  -4.5618731769854487e-01  -4.3427522137631058e-01  -4.0478650059650712e-01  -3.6885439036123713e-01  -3.2785974151588271e-01  -2.8337795542550653e-01  -2.3711844218388892e-01  -1.9085892894227127e-01  -1.4637714285189515e-01  -1.0538249400654069e-01  -6.9450383771270732e-02  -3.9961662991467257e-02  -1.8049566669233023e-02  -4.5561643777862430e-03  0.0000000000000000e+00  -4.5561643777862430e-03  -1.8049566669233054e-02  -3.9961662991467285e-02  -6.9450383771270788e-02  -1.0538249400654073e-01  -1.4637714285189524e-01  -1.9085892894227136e-01  -2.3711844218388897e-01  -2.8337795542550653e-01  -3.2785974151588265e-01  -3.6885439036123724e-01  -4.0478650059650712e-01  -4.3427522137631058e-01  -4.5618731769854487e-01  -4.6968071998999178e-01  -4.7423688436777794e-01  -4.6968071998999178e-01  -4.5618731769854487e-01  -4.3427522137631058e-01  -4.0478650059650712e-01  -3.6885439036123724e-01  -3.2785974151588265e-01  -2.8337795542550653e-01  -2.3711844218388897e-01  -1.9085892894227136e-01  -1.4637714285189524e-01  -1.0538249400654073e-01  -6.9450383771270788e-02  -3.9961662991467285e-02  -1.8049566669233054e-02  -4.5561643777862430e-03  0.0000000000000000e+00  -4.5561643777862430e-03  -1.8049566669233023e-02  -3.9961662991467257e-02  -6.9450383771270732e-02  -1.0538249400654069e-01  -1.4637714285189515e-01  -1.9085892894227127e-01  -2.3711844218388892e-01  -2.8337795542550653e-01  -3.2785974151588271e-01  -3.6885439036123713e-01  -4.0478650059650712e-01  -4.3427522137631058e-01  -4.5618731769854487e-01  -4.6968071998999178e-01  -4.7423688436777794e-01  -4.6968071998999178e-01  -3.4410205480193201e-01  -2.8756605231519156e-01  -2.0987835684886547e-01  -1.2294564596455232e-01  -3.0156286101317771e-02  6.5623836446173506e-02  1.6196554470212710e-01  2.5662745992496599e-01  3.4746403151247618e-01  4.3240639001539732e-01  5.0948768943993339e-01  5.7689352627025370e-01  6.3302315051269198e-01  6.7655105998672582e-01  7.0648149413994876e-01  7.2219090423383037e-01  7.2345507717099944e-01  7.1045903361179330e-01  6.8378851104606142e-01  6.4440279398426437e-01  5.9358932559074318e-01  5.3290190844950869e-01  4.6408565751576053e-01  3.8899378106094340e-01  3.0950262141098911e-01  2.2743227296616081e-01  1.4447941763385350e-01  6.2167126524656655e-02  -1.8186689739337021e-02  -9.5483594360513499e-02  -1.6884538169674854e-01  -2.3760570614571580e-01  -3.0129616253732383e-01  -3.5962881018744358e-01  -4.1247541403747601e-01  -4.5984297633458376e-01  -5.0184519816831419e-01  -5.3867070645073178e-01  -5.7054997638319227e-01  -5.9772406492246610e-01  -6.2041834351822067e-01  -6.3882416478570359e-01  -6.5309004049281061e-01  -6.6332265557666059e-01  -6.6959630962252403e-01  -6.7196837267945797e-01  -6.7049733263539879e-01  -6.6526005335296678e-01  -6.5636500299823719e-01  -6.4395942312174881e-01  -6.2822938187304600e-01  -6.0939402279787958e-01  -5.8769481428703518e-01  -5.6338966992468964e-01  -5.3673784422916893e-01  -5.0805230500405274e-01  -4.7760047532187289e-01  -4.4614684284079631e-01  -4.1372764966356074e-01  -3.8459775487865022e-01  -3.5455993629618326e-01  -3.5263279562683059e-01  -3.2164039360729962e-01  -4.6968071998999178e-01  -4.5618731769854487e-01  -3.3954600122708667e-01  -3.1713054840253013e-01  -2.6256105419471715e-01  -2.0339064850378860e-01  -1.3953700962423576e-01  -7.3174321183551702e-02  -6.1156582079823192e-03  5.9962970442717721e-02  1.2348750721671299e-01  1.8296732051138637e-01  2.3700402746924804e-01  2.8431969408943447e-01  3.2379622875814817e-01  3.5451811239342729e-01  3.7581186182103582e-01  3.8727674861482403e-01  3.8880301040050752e-01  3.8057498370563708e-01  3.6305825643331080e-01  3.3697110854691142e-01  3.0324224960966317e-01  2.6295813115548611e-01  2.1730468055830882e-01  1.6750898163501721e-01  1.1478667462258120e-01  6.0299665846853277e-02  5.1268579868449793e-03  -4.9752048437959412e-02  -1.0346198960497043e-01  -1.5523114342255553e-01  -2.0438698256483856e-01  -2.5035319078519269e-01  -2.9264934454735508e-01  -3.3089350272473955e-01  -3.6480666945838530e-01  -3.9421735877932640e-01  -4.1906463952757406e-01  -4.3939822877716128e-01  -4.5537482245480643e-01  -4.6724997511522032e-01  -4.7536527383412530e-01  -4.8013050357328096e-01  -4.8200105485795330e-01  -4.8145113970116510e-01  -4.7894437571467008e-01  -4.7490384919718787e-01  -4.6968465295533285e-01  -4.6355191113047872e-01  -4.5666735709542955e-01  -4.4908661240375197e-01  -4.4076834659349357e-01  -4.3159562629282272e-01  -4.2140669083507165e-01  -4.1003981553232294e-01  -3.9736804003362997e-01  -3.8340528682362679e-01  -3.6821279461209022e-01  -3.5255155224436252e-01  -3.3625788495205367e-01  -3.2421128567398738e-01  -3.0887641284119960e-01  -3.2509881403154334e-01  -2.7962782326944768e-01  -4.5618731769854487e-01  -4.3427522137631058e-01  -3.5005634922358941e-01  -3.1487972270277109e-01  -2.5659301960881564e-01  -1.9590655472226878e-01  -1.3056121963478426e-01  -6.2905309295434073e-02  5.4630297411716469e-03  7.2970355542107707e-02  1.3809579448149692e-01  1.9936344049957194e-01  2.5535990387607266e-01  3.0476918173149692e-01  3.4641883168294435e-01  3.7933026931177233e-01  4.0276606960243466e-01  4.1626807245434189e-01  4.1968136679161155e-01  4.1316101060733806e-01  3.9716015138209892e-01  3.7240022100457298e-01  3.3982572101848108e-01  3.0054785373657661e-01  2.5578244468489869e-01  2.0678816641306860e-01  1.5481065900342197e-01  1.0103690466651277e-01  4.6562241251518893e-02  -7.6297800244153457e-03  -6.0676403134385326e-02  -1.1183649777382410e-01  -1.6048653201974447e-01  -2.0611459949434760e-01  -2.4831445124688770e-01  -2.8678039487386436e-01  -3.2130295632293993e-01  -3.5176461185501390e-01  -3.7813466248130745e-01  -4.0046246756765025e-01  -4.1886852032901400e-01  -4.3353326668534575e-01  -4.4468387387585845e-01  -4.5257951938145374e-01  -4.5749594841676705e-01  -4.5971025340398169e-01  -4.5948684933576578e-01  -4.5706565779796293e-01  -4.5265332609562775e-01  -4.4641818921380488e-01  -4.3848935687424645e-01  -4.2896022016405694e-01  -4.1789624359575822e-01  -4.0534765063055517e-01  -3.9136489112618011e-01  -3.7602539732860002e-01  -3.5944398735632360e-01  -3.4187096639413622e-01  -3.2353452792663062e-01  -3.0541274149950498e-01  -2.8706228194576583e-01  -2.7410568979949923e-01  -2.5506459370003332e-01  -2.7358241145975470e-01  -1.9828868838763269e-01  -4.3427522137631058e-01  -4.0478650059650712e-01  -3.7366718852843311e-01  -3.2531665312789060e-01  -2.7036611179187403e-01  -2.1320747265191209e-01  -1.5316187487163385e-01  -9.2001322003110259e-02  -3.0877600749435099e-02  2.8944462832466485e-02  8.6244233049692795e-02  1.3984736638790951e-01  1.8864856836531876e-01  2.3163952146238462e-01  2.6794108948275053e-01  2.9683617313139371e-01  3.1779922069735916e-01  3.3051872944907629e-01  3.3490977973399821e-01  3.3111484862184470e-01  3.1949238513308842e-01  3.0059408978942542e-01  2.7513295507890673e-01  2.4394514202241283e-01  2.0794915719205501e-01  1.6810585179459037e-01  1.2538217337618118e-01  8.0720778074044416e-02  3.5016477594042465e-02  -1.0900494234222362e-02  -5.6275287131119026e-02  -1.0043464603317714e-01  -1.4278999324869915e-01  -1.8283862121772687e-01  -2.2016382329579581e-01  -2.5443433924434489e-01  -2.8540306501743740e-01  -3.1290477775652231e-01  -3.3685249772243370e-01  -3.5723222298229390e-01  -3.7409585653959360e-01  -3.8755237392005115e-01  -3.9775737664481181e-01  -4.0490138271746101e-01  -4.0919726551169616e-01  -4.1086746369886773e-01  -4.1013162964691402e-01  -4.0719557469434231e-01  -4.0224236845987893e-01  -3.9542651086125941e-01  -3.8687191202243987e-01  -3.7667432334668555e-01  -3.6490830938491348e-01  -3.5163951677486677e-01  -3.3693943862550618e-01  -3.2091227625393054e-01  -3.0369915590939689e-01  -2.8558464157100399e-01  -2.6678009918574097e-01  -2.4833753925554281e-01  -2.2938388087432701e-01  -2.1634566031271163e-01  -1.9366676270382002e-01  -2.1514115834358213e-01  -1.1218895032243757e-01  -4.0478650059650712e-01  -3.6885439036123713e-01  -4.0290171849363793e-01  -3.3926764460928654e-01  -2.8537762466854932e-01  -2.2865025529305491e-01  -1.7074696199125763e-01  -1.1245874593412647e-01  -5.4680246371185667e-02  1.5793160713566297e-03  5.5318754304423040e-02  1.0555260798237084e-01  1.5134213368512911e-01  1.9182393669778644e-01  2.2624024644934151e-01  2.5396862259307512e-01  2.7454854740523998e-01  2.8770203407314848e-01  2.9334591125377651e-01  2.9159410508216999e-01  2.8274945563331766e-01  2.6728558732172569e-01  2.4582057544421257e-01  2.1908481666716967e-01  1.8788610205633671e-01  1.5307478719953135e-01  1.1551169952908191e-01  7.6040637350326679e-02  3.5466548303233911e-02  -5.4604650026320580e-03  -4.6055810580491179e-02  -8.5706745346999347e-02  -1.2387553505684734e-01  -1.6010049533318541e-01  -1.9399571678409155e-01  -2.2524990155802743e-01  -2.5362447828067436e-01  -2.7895086390131490e-01  -3.0112672221255798e-01  -3.2011098104783675e-01  -3.3591756082875002e-01  -3.4860777640083934e-01  -3.5828163817861280e-01  -3.6506828850320294e-01  -3.6911607080924036e-01  -3.7058268055174964e-01  -3.6962607363098021e-01  -3.6639669407656678e-01  -3.6103171728700822e-01  -3.5365178258032137e-01  -3.4436069850710010e-01  -3.3324835954866860e-01  -3.2039683855478207e-01  -3.0589032206524197e-01  -2.8982578994989683e-01  -2.7233576026769990e-01  -2.5358167433266604e-01  -2.3386705744526426e-01  -2.1335546238653852e-01  -1.9315235056294933e-01  -1.7189275600432347e-01  -1.5696636129112992e-01  -1.2856217331591430e-01  -1.5185091337095213e-01  -1.9957889424509458e-02  -3.6885439036123713e-01  -3.2785974151588271e-01  -4.3393200034603818e-01  -3.5501081277292651e-01  -3.0293654430258171e-01  -2.4694915527713970e-01  -1.9132263903813346e-01  -1.3600987713585136e-01  -8.1751226738578098e-02  -2.9305851630289186e-02  2.0529305783125344e-02  6.6958845946756315e-02  1.0922290540354897e-01  1.4662517037110345e-01  1.7855943008332284e-01  2.0453349435767351e-01  2.2418918212842764e-01  2.3731697701447479e-01  2.4386400201755934e-01  2.4393462417062245e-01  2.3778349932706835e-01  2.2580172714690899e-01  2.0849724990263266e-01  1.8647123797722875e-01  1.6039230765170559e-01  1.3097054111961950e-01  9.8932932414051850e-02  6.5001589144665001e-02  2.9875445063661136e-02  -5.7841890239490037e-03  -4.1364387414887793e-02  -7.6308103329575078e-02  -1.1011897695622730e-01  -1.4236405581460959e-01  -1.7267490355174558e-01  -2.0074745847540060e-01  -2.2634078717545747e-01  -2.4927482707982485e-01  -2.6942705351337276e-01  -2.8672809847589631e-01  -3.0115627449139964e-01  -3.1273115570935911e-01  -3.2150631634609572e-01  -3.2756155985585494e-01  -3.3099490503228168e-01  -3.3191481995407918e-01  -3.3043307645517866e-01  -3.2665878622900929e-01  -3.2069398861864629e-01  -3.1263128839373927e-01  -3.0255374758149045e-01  -2.9053736053622636e-01  -2.7665584626627499e-01  -2.6098868243370471e-01  -2.4362864366073309e-01  -2.2470206807443419e-01  -2.0435311308039911e-01  -1.8286723530767757e-01  -1.6032299344469822e-01  -1.3786596292967901e-01  -1.1360048247182951e-01  -9.6030305506158445e-02  -6.0907608845100665e-02  -8.5659477044136345e-02  7.5101151850935730e-02  -3.2785974151588271e-01  -2.8337795542550653e-01  -4.6493667217228474e-01  -3.7096195811592353e-01  -3.2124756360274664e-01  -2.6579053500507843e-01  -2.1198180331711014e-01  -1.5900031753729826e-01  -1.0748837097391885e-01  -5.7999595103011614e-02  -1.1166561548468124e-02  3.2371780672673690e-02  7.1998180583590116e-02  1.0714459141280008e-01  1.3731619691251387e-01  1.6211208557066609e-01  1.8124211588351544e-01  1.9453910468642388e-01  2.0196558602954201e-01  2.0361464498968926e-01  1.9970478243851161e-01  1.9056924016838311e-01  1.7664068243603553e-01  1.5843248182245495e-01  1.3651805788525587e-01  1.1150974471325817e-01  8.4038514944468498e-02  5.4735615626267255e-02  2.4216807125870467e-02  -6.9304637622044319e-03  -3.8156962483567654e-02  -6.8958875085383606e-02  -9.8882706956181815e-02  -1.2752827821368190e-01  -1.5455018304931184e-01  -1.7965798574766018e-01  -2.0261532792436152e-01  -2.2323803663565406e-01  -2.4139127834077295e-01  -2.5698578637547265e-01  -2.6997322367683557e-01  -2.8034077679440500e-01  -2.8810515289054733e-01  -2.9330619990359513e-01  -2.9600044150581140e-01  -2.9625485037338828e-01  -2.9414122995592162e-01  -2.8973154904531129e-01  -2.8309458583195035e-01  -2.7429414272694674e-01  -2.6338904168233140e-01  -2.5043503652436216e-01  -2.3548841064924983e-01  -2.1861215086492367e-01  -1.9988066880137204e-01  -1.7939792905280383e-01  -1.5727346026534481e-01  -1.3375793845084197e-01  -1.0882915934734218e-01  -8.3673064258116034e-02  -5.5844839131768104e-02  -3.5075473903908964e-02  7.4535509064332199e-03  -1.8518612404231374e-02  1.7066184050869995e-01  -2.8337795542550653e-01  -2.3711844218388892e-01  -4.9504222999091058e-01  -3.8622128940679146e-01  -3.3949396288935135e-01  -2.8463032492031737e-01  -2.3253365390065159e-01  -1.8161236413577037e-01  -1.3249034288904632e-01  -8.5561440930942687e-02  -4.1327330973481569e-02  -2.9687589615451577e-04  3.7033366935070276e-02  7.0206011066977103e-02  9.8823895495966971e-02  1.2256779536708329e-01  1.4121035556419756e-01  1.5462584981136090e-01  1.6279543943576127e-01  1.6580768315098773e-01  1.6385443862373938e-01  1.5722248710125328e-01  1.4628163404156985e-01  1.3147013841557834e-01  1.1327857300706683e-01  9.2233115117389658e-02  6.8879287132853670e-02  4.3766890940722301e-02  1.7436737726399785e-02  -9.5905423538738595e-03  -3.6823486843103818e-02  -6.3806678973945055e-02  -9.0125699865013967e-02  -1.1541039691780597e-01  -1.3933671489770991e-01  -1.6162727863635598e-01  -1.8205090501845705e-01  -2.0042112547700572e-01  -2.1659383083306505e-01  -2.3046407767294813e-01  -2.4196217937756559e-01  -2.5104915725103560e-01  -2.5771174998057417e-01  -2.6195713246561259e-01  -2.6380762831263138e-01  -2.6329562711201288e-01  -2.6045903112392638e-01  -2.5533745989064482e-01  -2.4796949452989492e-01  -2.3839112297556836e-01  -2.2663553806569045e-01  -2.1273436532471410e-01  -1.9672007294154800e-01  -1.7863051545022759e-01  -1.5851128118189040e-01  -1.3643229243537880e-01  -1.1245681111308757e-01  -8.6789948388707211e-02  -5.9301432155964492e-02  -3.1217462830013532e-02  4.5809350585871605e-04  2.4709846457283611e-02  7.4959823735443951e-02  4.7909545963584946e-02  2.6452640860719234e-01  -2.3711844218388892e-01  -1.9085892894227127e-01  -5.2378549379450756e-01  -4.0031167997644890e-01  -3.5711785656760614e-01  -3.0289560627815998e-01  -2.5240904315498197e-01  -2.0328921115393675e-01  -1.5620989453257889e-01  -1.1143924171912412e-01  -6.9379507630866213e-02  -3.0435301317842074e-02  4.9952332227339250e-03  3.6545621085162218e-02  6.3898878760923955e-02  8.6802641189394847e-02  1.0508074805888881e-01  1.1864129527760911e-01  1.2748091831526198e-01  1.3168530044023938e-01  1.3142596874710119e-01  1.2695376124758564e-01  1.1858943844232317e-01  1.0671217860058560e-01  9.1746684049393776e-02  7.4149747196008586e-02  5.4396972535688565e-02  3.2970317136405858e-02  1.0346877370987684e-02  -1.3010751906796666e-02  -3.6662439651541590e-02  -6.0196788048591673e-02  -8.3235812359010217e-02  -1.0543817414678290e-01  -1.2650112420348222e-01  -1.4616131698235726e-01  -1.6419460651640619e-01  -1.8041495006619260e-01  -1.9467248425477834e-01  -2.0685088666860588e-01  -2.1686408684312175e-01  -2.2465247577581732e-01  -2.3017871842210574e-01  -2.3342337839686800e-01  -2.3438050055268969e-01  -2.3305340836591915e-01  -2.2945088335227992e-01  -2.2358397017914311e-01  -2.1546354384899585e-01  -2.0509881367421137e-01  -1.9249679520781010e-01  -1.7766287294091507e-01  -1.6060210967827343e-01  -1.4132241061124784e-01  -1.1983491941906660e-01  -9.6169452319328233e-02  -7.0337778072879831e-02  -4.2494265339183213e-02  -1.2401001113713797e-02  1.8679209004142720e-02  5.4275427384463962e-02  8.2097189102643492e-02  1.4005666540354592e-01  1.1204130334723501e-01  3.5456741637668687e-01  -1.9085892894227127e-01  -1.4637714285189515e-01  -5.5086386228658812e-01  -4.1302688341167365e-01  -3.7377628034567267e-01  -3.2022452383281536e-01  -2.7128032611249803e-01  -2.2377001866843710e-01  -1.7847037389373605e-01  -1.3555126191473199e-01  -9.5342814046069702e-02  -5.8167101902410173e-02  -2.4342471904673989e-02  5.8397109582966908e-03  3.2129515495992009e-02  5.4331081272489340e-02  7.2312113837876738e-02  8.6010398772607785e-02  9.5437246247001464e-02  1.0067786275838578e-01  1.0188881146758962e-01  9.9292808980016689e-02  9.3171299632761911e-02  8.3855300360395527e-02  7.1715128220194171e-02  5.7149580141134103e-02  4.0575153973834731e-02  2.2415768355417622e-02  3.0933821939292971e-03  -1.6980250823994830e-02  -3.7410531349309974e-02  -5.7825635398224294e-02  -7.7880830051943128e-02  -9.7261564386176280e-02  -1.1568543741997390e-01  -1.3290314552014354e-01  -1.4869851747100624e-01  -1.6288771950293424e-01  -1.7531772886308597e-01  -1.8586414923512876e-01  -1.9442847870095853e-01  -2.0093491769455685e-01  -2.0532686498314015e-01  -2.0756321785815057e-01  -2.0761466193377104e-01  -2.0546008330918714e-01  -2.0108329597129923e-01  -1.9447020753172006e-01  -1.8560657439836956e-01  -1.7447641536738540e-01  -1.6106114432750429e-01  -1.4533946733877751e-01  -1.2728777187816626e-01  -1.0688209024899278e-01  -8.4096988326916380e-02  -5.8919973605947758e-02  -3.1310480614253455e-02  -1.3703527640088161e-03  3.1239509843184139e-02  6.5229109915316635e-02  1.0461752717060591e-01  1.3592216764939169e-01  2.0125279413662170e-01  1.7238256253570527e-01  4.3873007684696252e-01  -1.4637714285189515e-01  -1.0538249400654069e-01  -5.7602351978835531e-01  -4.2433914021268210e-01  -3.8926331308404633e-01  -3.3637335719804917e-01  -2.8889918639804996e-01  -2.4283051429279939e-01  -1.9908827974812165e-01  -1.5776366685953327e-01  -1.1913596870100893e-01  -8.3462263937993178e-02  -5.0996604990007147e-02  -2.1968553848276489e-02  3.4277877467475625e-03  2.5044048031495098e-02  4.2785151699627079e-02  5.6614510851416035e-02  6.6556725630947750e-02  7.2697846043533854e-02  7.5183313855391468e-02  7.4213809864604061e-02  7.0039323750047552e-02  6.2951844462874537e-02  5.3277107085423943e-02  4.1365857196156840e-02  2.7585055095549330e-02  1.2309408954806094e-02  -4.0864706116666557e-03  -2.1235059158697164e-02  -3.8781922247613322e-02  -5.6390660944437544e-02  -7.3746799778947353e-02  -9.0560646696484393e-02  -1.0656919087013139e-01  -1.2153710699131060e-01  -1.3525694718019191e-01  -1.4754859326556541e-01  -1.5825805007046412e-01  -1.6725565760831237e-01  -1.7443380884872739e-01  -1.7970427079663898e-01  -1.8299521295382437e-01  -1.8424806696950632e-01  -1.8341433550315697e-01  -1.8045248744397846e-01  -1.7532505545525523e-01  -1.6799605428301584e-01  -1.5842880200596796e-01  -1.4658421502842461e-01  -1.3241958920133645e-01  -1.1588793305891711e-01  -9.6937566386413918e-02  -7.5513110602559719e-02  -5.1553224355869176e-02  -2.5004023373786013e-02  4.2247286093808380e-03  3.6082833362300865e-02  7.0998681403105723e-02  1.0767024445071022e-01  1.5053662004418236e-01  1.8508142320053170e-01  2.5712320586484916e-01  2.2752318451700951e-01  5.1505317432192343e-01  -1.0538249400654069e-01  -6.9450383771270732e-02  -5.9900940853678530e-01  -4.3433365500233728e-01  -4.0345763920235944e-01  -3.5118294910432535e-01  -3.0509021212951193e-01  -2.6031100179940475e-01  -2.1793810535150654e-01  -1.7799638547805952e-01  -1.4072997589090680e-01  -1.0634437336591984e-01  -7.5041549077544026e-02  -4.6999874010453968e-02  -2.2366619298535891e-02  -1.2498822037699006e-03  1.6287209171503125e-02  3.0230494286700015e-02  4.0616806285858377e-02  4.7534092864049117e-02  5.1119705052727678e-02  5.1557047055286978e-02  4.9070812897915740e-02  4.3921122657136061e-02  3.6396881635519157e-02  2.6808713828420320e-02  1.5481796860530181e-02  2.74889340360