<?xml version="1.0"?>
<VTKFile type="UnstructuredGrid"  version="0.1"  >
<UnstructuredGrid>
<Piece  NumberOfPoints="4225" NumberOfCells="8192">
<Points>
<DataArray  type="Float64"  NumberOfComponents="3"  format="ascii">-1 -1 0  -0.96875 -1 0  -0.9375 -1 0  -0.90625 -1 0  -0.875 -1 0  -0.84375 -1 0  -0.8125 -1 0  -0.78125 -1 0  -0.75 -1 0  -0.71875 -1 0  -0.6875 -1 0  -0.65625 -1 0  -0.625 -1 0  -0.59375 -1 0  -0.5625 -1 0  -0.53125 -1 0  -0.5 -1 0  -0.46875 -1 0  -0.4375 -1 0  -0.40625 -1 0  -0.375 -1 0  -0.34375 -1 0  -0.3125 -1 0  -0.28125 -1 0  -0.25 -1 0  -0.21875 -1 0  -0.1875 -1 0  -0.15625 -1 0  -0.125 -1 0  -0.09375 -1 0  -0.0625 -1 0  -0.03125 -1 0  0 -1 0  0.03125 -1 0  0.0625 -1 0  0.09375 -1 0  0.125 -1 0  0.15625 -1 0  0.1875 -1 0  0.21875 -1 0  0.25 -1 0  0.28125 -1 0  0.3125 -1 0  0.34375 -1 0  0.375 -1 0  0.40625 -1 0  0.4375 -1 0  0.46875 -1 0  0.5 -1 0  0.53125 -1 0  0.5625 -1 0  0.59375 -1 0  0.625 -1 0  0.65625 -1 0  0.6875 -1 0  0.71875 -1 0  0.75 -1 0  0.78125 -1 0  0.8125 -1 0  0.84375 -1 0  0.875 -1 0  0.90625 -1 0  0.9375 -1 0  0.96875 -1 0  1 -1 0  -1 -0.96875 0  -0.96875 -0.96875 0  -0.9375 -0.96875 0  -0.90625 -0.96875 0  -0.875 -0.96875 0  -0.84375 -0.96875 0  -0.8125 -0.96875 0  -0.78125 -0.96875 0  -0.75 -0.96875 0  -0.71875 -0.96875 0  -0.6875 -0.96875 0  -0.65625 -0.96875 0  -0.625 -0.96875 0  -0.59375 -0.96875 0  -0.5625 -0.96875 0  -0.53125 -0.96875 0  -0.5 -0.96875 0  -0.46875 -0.96875 0  -0.4375 -0.96875 0  -0.40625 -0.96875 0  -0.375 -0.96875 0  -0.34375 -0.96875 0  -0.3125 -0.96875 0  -0.28125 -0.96875 0  -0.25 -0.96875 0  -0.21875 -0.96875 0  -0.1875 -0.96875 0  -0.15625 -0.96875 0  -0.125 -0.96875 0  -0.09375 -0.96875 0  -0.0625 -0.96875 0  -0.03125 -0.96875 0  0 -0.96875 0  0.03125 -0.96875 0  0.0625 -0.96875 0  0.09375 -0.96875 0  0.125 -0.96875 0  0.15625 -0.96875 0  0.1875 -0.96875 0  0.21875 -0.96875 0  0.25 -0.96875 0  0.28125 -0.96875 0  0.3125 -0.96875 0  0.34375 -0.96875 0  0.375 -0.96875 0  0.40625 -0.96875 0  0.4375 -0.96875 0  0.46875 -0.96875 0  0.5 -0.96875 0  0.53125 -0.96875 0  0.5625 -0.96875 0  0.59375 -0.96875 0  0.625 -0.96875 0  0.65625 -0.96875 0  0.6875 -0.96875 0  0.71875 -0.96875 0  0.75 -0.96875 0  0.78125 -0.96875 0  0.8125 -0.96875 0  0.84375 -0.96875 0  0.875 -0.96875 0  0.90625 -0.96875 0  0.9375 -0.96875 0  0.96875 -0.96875 0  1 -0.96875 0  -1 -0.9375 0  -0.96875 -0.9375 0  -0.9375 -0.9375 0  -0.90625 -0.9375 0  -0.875 -0.9375 0  -0.84375 -0.9375 0  -0.8125 -0.9375 0  -0.78125 -0.9375 0  -0.75 -0.9375 0  -0.71875 -0.9375 0  -0.6875 -0.9375 0  -0.65625 -0.9375 0  -0.625 -0.9375 0  -0.59375 -0.9375 0  -0.5625 -0.9375 0  -0.53125 -0.9375 0  -0.5 -0.9375 0  -0.46875 -0.9375 0  -0.4375 -0.9375 0  -0.40625 -0.9375 0  -0.375 -0.9375 0  -0.34375 -0.9375 0  -0.3125 -0.9375 0  -0.28125 -0.9375 0  -0.25 -0.9375 0  -0.21875 -0.9375 0  -0.1875 -0.9375 0  -0.15625 -0.9375 0  -0.125 -0.9375 0  -0.09375 -0.9375 0  -0.0625 -0.9375 0  -0.03125 -0.9375 0  0 -0.9375 0  0.03125 -0.9375 0  0.0625 -0.9375 0  0.09375 -0.9375 0  0.125 -0.9375 0  0.15625 -0.9375 0  0.1875 -0.9375 0  0.21875 -0.9375 0  0.25 -0.9375 0  0.28125 -0.9375 0  0.3125 -0.9375 0  0.34375 -0.9375 0  0.375 -0.9375 0  0.40625 -0.9375 0  0.4375 -0.9375 0  0.46875 -0.9375 0  0.5 -0.9375 0  0.53125 -0.9375 0  0.5625 -0.9375 0  0.59375 -0.9375 0  0.625 -0.9375 0  0.65625 -0.9375 0  0.6875 -0.9375 0  0.71875 -0.9375 0  0.75 -0.9375 0  0.78125 -0.9375 0  0.8125 -0.9375 0  0.84375 -0.9375 0  0.875 -0.9375 0  0.90625 -0.9375 0  0.9375 -0.9375 0  0.96875 -0.9375 0  1 -0.9375 0  -1 -0.90625 0  -0.96875 -0.90625 0  -0.9375 -0.90625 0  -0.90625 -0.90625 0  -0.875 -0.90625 0  -0.84375 -0.90625 0  -0.8125 -0.90625 0  -0.78125 -0.90625 0  -0.75 -0.90625 0  -0.71875 -0.90625 0  -0.6875 -0.90625 0  -0.65625 -0.90625 0  -0.625 -0.90625 0  -0.59375 -0.90625 0  -0.5625 -0.90625 0  -0.53125 -0.90625 0  -0.5 -0.90625 0  -0.46875 -0.90625 0  -0.4375 -0.90625 0  -0.40625 -0.90625 0  -0.375 -0.90625 0  -0.34375 -0.90625 0  -0.3125 -0.90625 0  -0.28125 -0.90625 0  -0.25 -0.90625 0  -0.21875 -0.90625 0  -0.1875 -0.90625 0  -0.15625 -0.90625 0  -0.125 -0.90625 0  -0.09375 -0.90625 0  -0.0625 -0.90625 0  -0.03125 -0.90625 0  0 -0.90625 0  0.03125 -0.90625 0  0.0625 -0.90625 0  0.09375 -0.90625 0  0.125 -0.90625 0  0.15625 -0.90625 0  0.1875 -0.90625 0  0.21875 -0.90625 0  0.25 -0.90625 0  0.28125 -0.90625 0  0.3125 -0.90625 0  0.34375 -0.90625 0  0.375 -0.90625 0  0.40625 -0.90625 0  0.4375 -0.90625 0  0.46875 -0.90625 0  0.5 -0.90625 0  0.53125 -0.90625 0  0.5625 -0.90625 0  0.59375 -0.90625 0  0.625 -0.90625 0  0.65625 -0.90625 0  0.6875 -0.90625 0  0.71875 -0.90625 0  0.75 -0.90625 0  0.78125 -0.90625 0  0.8125 -0.90625 0  0.84375 -0.90625 0  0.875 -0.90625 0  0.90625 -0.90625 0  0.9375 -0.90625 0  0.96875 -0.90625 0  1 -0.90625 0  -1 -0.875 0  -0.96875 -0.875 0  -0.9375 -0.875 0  -0.90625 -0.875 0  -0.875 -0.875 0  -0.84375 -0.875 0  -0.8125 -0.875 0  -0.78125 -0.875 0  -0.75 -0.875 0  -0.71875 -0.875 0  -0.6875 -0.875 0  -0.65625 -0.875 0  -0.625 -0.875 0  -0.59375 -0.875 0  -0.5625 -0.875 0  -0.53125 -0.875 0  -0.5 -0.875 0  -0.46875 -0.875 0  -0.4375 -0.875 0  -0.40625 -0.875 0  -0.375 -0.875 0  -0.34375 -0.875 0  -0.3125 -0.875 0  -0.28125 -0.875 0  -0.25 -0.875 0  -0.21875 -0.875 0  -0.1875 -0.875 0  -0.15625 -0.875 0  -0.125 -0.875 0  -0.09375 -0.875 0  -0.0625 -0.875 0  -0.03125 -0.875 0  0 -0.875 0  0.03125 -0.875 0  0.0625 -0.875 0  0.09375 -0.875 0  0.125 -0.875 0  0.15625 -0.875 0  0.1875 -0.875 0  0.21875 -0.875 0  0.25 -0.875 0  0.28125 -0.875 0  0.3125 -0.875 0  0.34375 -0.875 0  0.375 -0.875 0  0.40625 -0.875 0  0.4375 -0.875 0  0.46875 -0.875 0  0.5 -0.875 0  0.53125 -0.875 0  0.5625 -0.875 0  0.59375 -0.875 0  0.625 -0.875 0  0.65625 -0.875 0  0.6875 -0.875 0  0.71875 -0.875 0  0.75 -0.875 0  0.78125 -0.875 0  0.8125 -0.875 0  0.84375 -0.875 0  0.875 -0.875 0  0.90625 -0.875 0  0.9375 -0.875 0  0.96875 -0.875 0  1 -0.875 0  -1 -0.84375 0  -0.96875 -0.84375 0  -0.9375 -0.84375 0  -0.90625 -0.84375 0  -0.875 -0.84375 0  -0.84375 -0.84375 0  -0.8125 -0.84375 0  -0.78125 -0.84375 0  -0.75 -0.84375 0  -0.71875 -0.84375 0  -0.6875 -0.84375 0  -0.65625 -0.84375 0  -0.625 -0.84375 0  -0.59375 -0.84375 0  -0.5625 -0.84375 0  -0.53125 -0.84375 0  -0.5 -0.84375 0  -0.46875 -0.84375 0  -0.4375 -0.84375 0  -0.40625 -0.84375 0  -0.375 -0.84375 0  -0.34375 -0.84375 0  -0.3125 -0.84375 0  -0.28125 -0.84375 0  -0.25 -0.84375 0  -0.21875 -0.84375 0  -0.1875 -0.84375 0  -0.15625 -0.84375 0  -0.125 -0.84375 0  -0.09375 -0.84375 0  -0.0625 -0.84375 0  -0.03125 -0.84375 0  0 -0.84375 0  0.03125 -0.84375 0  0.0625 -0.84375 0  0.09375 -0.84375 0  0.125 -0.84375 0  0.15625 -0.84375 0  0.1875 -0.84375 0  0.21875 -0.84375 0  0.25 -0.84375 0  0.28125 -0.84375 0  0.3125 -0.84375 0  0.34375 -0.84375 0  0.375 -0.84375 0  0.40625 -0.84375 0  0.4375 -0.84375 0  0.46875 -0.84375 0  0.5 -0.84375 0  0.53125 -0.84375 0  0.5625 -0.84375 0  0.59375 -0.84375 0  0.625 -0.84375 0  0.65625 -0.84375 0  0.6875 -0.84375 0  0.71875 -0.84375 0  0.75 -0.84375 0  0.78125 -0.84375 0  0.8125 -0.84375 0  0.84375 -0.84375 0  0.875 -0.84375 0  0.90625 -0.84375 0  0.9375 -0.84375 0  0.96875 -0.84375 0  1 -0.84375 0  -1 -0.8125 0  -0.96875 -0.8125 0  -0.9375 -0.8125 0  -0.90625 -0.8125 0  -0.875 -0.8125 0  -0.84375 -0.8125 0  -0.8125 -0.8125 0  -0.78125 -0.8125 0  -0.75 -0.8125 0  -0.71875 -0.8125 0  -0.6875 -0.8125 0  -0.65625 -0.8125 0  -0.625 -0.8125 0  -0.59375 -0.8125 0  -0.5625 -0.8125 0  -0.53125 -0.8125 0  -0.5 -0.8125 0  -0.46875 -0.8125 0  -0.4375 -0.8125 0  -0.40625 -0.8125 0  -0.375 -0.8125 0  -0.34375 -0.8125 0  -0.3125 -0.8125 0  -0.28125 -0.8125 0  -0.25 -0.8125 0  -0.21875 -0.8125 0  -0.1875 -0.8125 0  -0.15625 -0.8125 0  -0.125 -0.8125 0  -0.09375 -0.8125 0  -0.0625 -0.8125 0  -0.03125 -0.8125 0  0 -0.8125 0  0.03125 -0.8125 0  0.0625 -0.8125 0  0.09375 -0.8125 0  0.125 -0.8125 0  0.15625 -0.8125 0  0.1875 -0.8125 0  0.21875 -0.8125 0  0.25 -0.8125 0  0.28125 -0.8125 0  0.3125 -0.8125 0  0.34375 -0.8125 0  0.375 -0.8125 0  0.40625 -0.8125 0  0.4375 -0.8125 0  0.46875 -0.8125 0  0.5 -0.8125 0  0.53125 -0.8125 0  0.5625 -0.8125 0  0.59375 -0.8125 0  0.625 -0.8125 0  0.65625 -0.8125 0  0.6875 -0.8125 0  0.71875 -0.8125 0  0.75 -0.8125 0  0.78125 -0.8125 0  0.8125 -0.8125 0  0.84375 -0.8125 0  0.875 -0.8125 0  0.90625 -0.8125 0  0.9375 -0.8125 0  0.96875 -0.8125 0  1 -0.8125 0  -1 -0.78125 0  -0.96875 -0.78125 0  -0.9375 -0.78125 0  -0.90625 -0.78125 0  -0.875 -0.78125 0  -0.84375 -0.78125 0  -0.8125 -0.78125 0  -0.78125 -0.78125 0  -0.75 -0.78125 0  -0.71875 -0.78125 0  -0.6875 -0.78125 0  -0.65625 -0.78125 0  -0.625 -0.78125 0  -0.59375 -0.78125 0  -0.5625 -0.78125 0  -0.53125 -0.78125 0  -0.5 -0.78125 0  -0.46875 -0.78125 0  -0.4375 -0.78125 0  -0.40625 -0.78125 0  -0.375 -0.78125 0  -0.34375 -0.78125 0  -0.3125 -0.78125 0  -0.28125 -0.78125 0  -0.25 -0.78125 0  -0.21875 -0.78125 0  -0.1875 -0.78125 0  -0.15625 -0.78125 0  -0.125 -0.78125 0  -0.09375 -0.78125 0  -0.0625 -0.78125 0  -0.03125 -0.78125 0  0 -0.78125 0  0.03125 -0.78125 0  0.0625 -0.78125 0  0.09375 -0.78125 0  0.125 -0.78125 0  0.15625 -0.78125 0  0.1875 -0.78125 0  0.21875 -0.78125 0  0.25 -0.78125 0  0.28125 -0.78125 0  0.3125 -0.78125 0  0.34375 -0.78125 0  0.375 -0.78125 0  0.40625 -0.78125 0  0.4375 -0.78125 0  0.46875 -0.78125 0  0.5 -0.78125 0  0.53125 -0.78125 0  0.5625 -0.78125 0  0.59375 -0.78125 0  0.625 -0.78125 0  0.65625 -0.78125 0  0.6875 -0.78125 0  0.71875 -0.78125 0  0.75 -0.78125 0  0.78125 -0.78125 0  0.8125 -0.78125 0  0.84375 -0.78125 0  0.875 -0.78125 0  0.90625 -0.78125 0  0.9375 -0.78125 0  0.96875 -0.78125 0  1 -0.78125 0  -1 -0.75 0  -0.96875 -0.75 0  -0.9375 -0.75 0  -0.90625 -0.75 0  -0.875 -0.75 0  -0.84375 -0.75 0  -0.8125 -0.75 0  -0.78125 -0.75 0  -0.75 -0.75 0  -0.71875 -0.75 0  -0.6875 -0.75 0  -0.65625 -0.75 0  -0.625 -0.75 0  -0.59375 -0.75 0  -0.5625 -0.75 0  -0.53125 -0.75 0  -0.5 -0.75 0  -0.46875 -0.75 0  -0.4375 -0.75 0  -0.40625 -0.75
[...]
<PointData  Scalars="f_15"> 
<DataArray  type="Float64"  Name="f_15"  format="ascii">-4.3102634493493935e-01  -4.2688531975656668e-01  -4.1462138149673977e-01  -3.9470582642508811e-01  -3.6790399815424329e-01  -3.3524587591401533e-01  -2.9798649302721053e-01  -2.5755770668286571e-01  -2.1551317246746959e-01  -1.7346863825207348e-01  -1.3303985190772868e-01  -9.5780469020923811e-02  -6.3122346780695879e-02  -3.6320518509851046e-02  -1.6404963438199451e-02  -4.1410251783726686e-03  0.0000000000000000e+00  -4.1410251783726686e-03  -1.6404963438199475e-02  -3.6320518509851067e-02  -6.3122346780695920e-02  -9.5780469020923867e-02  -1.3303985190772880e-01  -1.7346863825207359e-01  -2.1551317246746968e-01  -2.5755770668286571e-01  -2.9798649302721053e-01  -3.3524587591401545e-01  -3.6790399815424329e-01  -3.9470582642508811e-01  -4.1462138149673977e-01  -4.2688531975656668e-01  -4.3102634493493935e-01  -4.2688531975656668e-01  -4.1462138149673977e-01  -3.9470582642508811e-01  -3.6790399815424329e-01  -3.3524587591401545e-01  -2.9798649302721053e-01  -2.5755770668286571e-01  -2.1551317246746968e-01  -1.7346863825207359e-01  -1.3303985190772880e-01  -9.5780469020923867e-02  -6.3122346780695920e-02  -3.6320518509851067e-02  -1.6404963438199475e-02  -4.1410251783726686e-03  0.0000000000000000e+00  -4.1410251783726686e-03  -1.6404963438199451e-02  -3.6320518509851046e-02  -6.3122346780695879e-02  -9.5780469020923811e-02  -1.3303985190772868e-01  -1.7346863825207348e-01  -2.1551317246746959e-01  -2.5755770668286571e-01  -2.9798649302721053e-01  -3.3524587591401533e-01  -3.6790399815424329e-01  -3.9470582642508811e-01  -4.1462138149673977e-01  -4.2688531975656668e-01  -4.3102634493493935e-01  -4.2688531975656668e-01  -3.5971179807304787e-01  -3.5403369505356619e-01  -3.3652905309962061e-01  -3.1048900391876705e-01  -2.7600841229843959e-01  -2.3442679198229002e-01  -1.8749350761301775e-01  -1.3713461321185663e-01  -8.5306767736868849e-02  -3.3902432384230845e-02  1.5314770959754429e-02  6.0755575112194544e-02  1.0103821855308560e-01  1.3501322033960772e-01  1.6178195494372449e-01  1.8071011676666138e-01  1.9143655985069874e-01  1.9387772919581495e-01  1.8822769535432746e-01  1.7495364323759346e-01  1.5478625713639244e-01  1.2870371361457481e-01  9.7906530984587181e-02  6.3778326880530936e-02  2.7825061309065733e-02  -8.4153075418694403e-03  -4.3496041236313177e-02  -7.6207575767331795e-02  -1.0571617749178873e-01  -1.3165039949496352e-01  -1.5409605263887169e-01  -1.7349190851689969e-01  -1.9046015212427553e-01  -2.0563132833943176e-01  -2.1951720079451550e-01  -2.3245468374428352e-01  -2.4461111521693196e-01  -2.5602324307021257e-01  -2.6664229205500400e-01  -2.7636877425945300e-01  -2.8507343910015009e-01  -2.9260934936146843e-01  -2.9882247413303925e-01  -3.0356639114917588e-01  -3.0672266229504286e-01  -3.0822468440665485e-01  -3.0808007283476252e-01  -3.0638584596193746e-01  -3.0333137428065027e-01  -2.9918667936922966e-01  -2.9427723551697554e-01  -2.8895298920135626e-01  -2.8356431942352234e-01  -2.7847279932946967e-01  -2.7410564434363505e-01  -2.7110012363256819e-01  -2.7037077258431624e-01  -2.7330185387823752e-01  -2.8099319822942920e-01  -2.9513842630915205e-01  -3.1292060896903812e-01  -3.4100485316009060e-01  -3.4813579791291127e-01  -4.2688531975656668e-01  -4.1462138149673977e-01  -3.3869718725713799e-01  -3.5795375106781324e-01  -3.4617215522673633e-01  -3.2596941747583791e-01  -2.9684661271974078e-01  -2.6068146866178116e-01  -2.1936251119464542e-01  -1.7486567448719445e-01  -1.2913907627997781e-01  -8.4028111253148768e-02  -4.1224608906522513e-02  -2.2306995060273243e-03  3.1669790518924157e-02  5.9435705188866053e-02  8.0289224769320294e-02  9.3731986330126194e-02  9.9555487778091242e-02  9.7844804207638622e-02  8.8975164828793391e-02  7.3601317791519960e-02  5.2639675057701979e-02  2.7242300664459158e-02  -1.2404284930263379e-03  -3.1315232316440067e-02  -6.1429132451149351e-02  -9.0088385996521081e-02  -1.1600942658993518e-01  -1.3827637223314171e-01  -1.5645850700471112e-01  -1.7063882657155099e-01  -1.8133209875317022e-01  -1.8931587860784446e-01  -1.9543223082120040e-01  -2.0042063911762950e-01  -2.0481820890549413e-01  -2.0893174696206254e-01  -2.1286466111106603e-01  -2.1657379649967110e-01  -2.1993400743610256e-01  -2.2279561917841803e-01  -2.2502798351796241e-01  -2.2654796742559749e-01  -2.2733516203465443e-01  -2.2743618688741418e-01  -2.2696039146932070e-01  -2.2606902279868604e-01  -2.2496023756844749e-01  -2.2385255640821555e-01  -2.2296954700961386e-01  -2.2252833595398211e-01  -2.2273413043476195e-01  -2.2378435487191889e-01  -2.2588415900374081e-01  -2.2928596634779413e-01  -2.3433604662522223e-01  -2.4157812107006260e-01  -2.5171420966771901e-01  -2.6577077694272050e-01  -2.8409920913641745e-01  -3.0753757576253976e-01  -3.3121751021362894e-01  -3.6021493342885474e-01  -3.5795768109648624e-01  -4.1462138149673977e-01  -3.9470582642508811e-01  -3.1362404276072225e-01  -3.3250967559907607e-01  -3.2063938459558222e-01  -3.0278458809269421e-01  -2.7569894401337203e-01  -2.4133738055485945e-01  -2.0136992894262579e-01  -1.5768919192950920e-01  -1.1222951998238692e-01  -6.6869320674997249e-02  -2.3356261965485882e-02  1.6745056880490845e-02  5.2089837300551604e-02  8.1579594701479602e-02  1.0438182768856293e-01  1.1994448569814951e-01  1.2800582824138629e-01  1.2859976811692564e-01  1.2205647770815575e-01  1.0899746185516712e-01  9.0322968038166862e-02  6.7187187933915066e-02  4.0953543044381917e-02  1.3120241760165444e-02  -1.4791140530075127e-02  -4.1380424078816223e-02  -6.5524665789533740e-02  -8.6505237347715869e-02  -1.0406382618031255e-01  -1.1836565703033271e-01  -1.2988315106359119e-01  -1.3924142911135926e-01  -1.4707269393632044e-01  -1.5391149269117380e-01  -1.6014103177196881e-01  -1.6598417152274858e-01  -1.7152502894635560e-01  -1.7674622559862285e-01  -1.8156965474527231e-01  -1.8589295139318346e-01  -1.8961801196920927e-01  -1.9267101944309856e-01  -1.9501510741777645e-01  -1.9665735785912411e-01  -1.9765168402844072e-01  -1.9809879313042669e-01  -1.9814402793054711e-01  -1.9797369096119966e-01  -1.9781035417878223e-01  -1.9790812056447016e-01  -1.9854900203120537e-01  -2.0004427807074351e-01  -2.0274150169736738e-01  -2.0705153623130493e-01  -2.1346739983635069e-01  -2.2264186304128794e-01  -2.3524937792695355e-01  -2.5214644634896310e-01  -2.7301472457396891e-01  -2.9814088483410994e-01  -3.2070030677305494e-01  -3.4698236943295940e-01  -3.3599637891088852e-01  -3.9470582642508811e-01  -3.6790399815424329e-01  -2.9286151366724494e-01  -3.0809580322138042e-01  -2.9742951736156786e-01  -2.8104090631450268e-01  -2.5628018285041709e-01  -2.2492108726259230e-01  -1.8831112722307974e-01  -1.4813107534732112e-01  -1.0614853935637852e-01  -6.4121422134009343e-02  -2.3708700923726171e-02  1.3595676872027356e-02  4.6510035958058776e-02  7.3997947776324166e-02  9.5291038441727940e-02  1.0990434179180712e-01  1.1764546482692567e-01  1.1861772410925145e-01  1.1321634908186702e-01  1.0211565652467040e-01  8.6243421346454727e-02  6.6736998608318845e-02  4.4875205102294750e-02  2.1982826598403827e-02  -6.8749828538261742e-04  -2.2079285265644736e-02  -4.1434934096016729e-02  -5.8349085591307262e-02  -7.2757344506977031e-02  -8.4866707721558937e-02  -9.5052472090947443e-02  -1.0375214218858118e-01  -1.1137966353773637e-01  -1.1827052945462799e-01  -1.2465728545094816e-01  -1.3066896879093276e-01  -1.3634623584943267e-01  -1.4166466079122150e-01  -1.4656031738450973e-01  -1.5095371512888933e-01  -1.5476990483126341e-01  -1.5795401290207181e-01  -1.6048232777047589e-01  -1.6236953386994915e-01  -1.6367275306020865e-01  -1.6449306057622978e-01  -1.6497506220020661e-01  -1.6530519221483217e-01  -1.6570942540330605e-01  -1.6645157662698407e-01  -1.6783317234212819e-01  -1.7019856371058661e-01  -1.7394345037893250e-01  -1.7954227760336067e-01  -1.8755123345923391e-01  -1.9867440860224544e-01  -2.1352066784970089e-01  -2.3279017760045811e-01  -2.5550513602041075e-01  -2.8167094908175222e-01  -3.0270773494425435e-01  -3.2733813418789309e-01  -3.1050995940380993e-01  -3.6790399815424329e-01  -3.3524587591401533e-01  -2.7788527023595461e-01  -2.8522155146929840e-01  -2.7278754644169784e-01  -2.5537708200630488e-01  -2.3112168729832638e-01  -2.0117372361249189e-01  -1.6658631657742276e-01  -1.2875207252087503e-01  -8.9191197481783599e-02  -4.9471347120903342e-02  -1.1114700863789725e-02  2.4477674115588832e-02  5.6085145532664027e-02  8.2711386390558764e-02  1.0361527513723988e-01  1.1833121741037805e-01  1.2668045460548216e-01  1.2877363312521614e-01  1.2500351589747966e-01  1.1602519185974521e-01  1.0272000441927107e-01  8.6139330268082182e-02  6.7426630509944713e-02  4.7721546698375611e-02  2.8057534972690933e-02  9.2712921581364974e-03  -8.0564693961856296e-03  -2.3616190062500052e-02  -3.7340720815254504e-02  -4.9345337861743784e-02  -5.9855408630621533e-02  -6.9138842500337597e-02  -7.7453878176963697e-02  -8.5015578767892452e-02  -9.1979580600101821e-02  -9.8439371928627437e-02  -1.0443302429232025e-01  -1.0995562071327547e-01  -1.1497433649182494e-01  -1.1944380023795223e-01  -1.2332019663673045e-01  -1.2657322020806222e-01  -1.2919561826168585e-01  -1.3121036187260221e-01  -1.3267574840165042e-01  -1.3368875374906344e-01  -1.3438705006666801e-01  -1.3495011043694755e-01  -1.3559994781423798e-01  -1.3660247866216993e-01  -1.3827023108308148e-01  -1.4097017799349654e-01  -1.4513295325624784e-01  -1.5128150425869236e-01  -1.6001813052716873e-01  -1.7208435330148625e-01  -1.8799981587705225e-01  -2.0831889459604078e-01  -2.3139466403630421e-01  -2.5722890814261051e-01  -2.7553891475957343e-01  -2.9853533030170648e-01  -2.7530848981665712e-01  -3.3524587591401533e-01  -2.9798649302721053e-01  -2.6903331639793071e-01  -2.6654324451363892e-01  -2.5160240281552437e-01  -2.3240459824457083e-01  -2.0778917851221027e-01  -1.7856846085592756e-01  -1.4559782848777172e-01  -1.0999755772722279e-01  -7.3031603397366779e-02  -3.6036399864212844e-02  -3.3693109471388355e-04  3.2827023988875229e-02  6.2363587413012962e-02  8.7378069201561437e-02  1.0720886469671738e-01  1.2145080633221005e-01  1.2996665429470139e-01  1.3288667352566569e-01  1.3059523286397662e-01  1.2370266000349714e-01  1.1300067002857028e-01  9.9401272418408973e-02  8.3862354478950143e-02  6.7307619625643300e-02  5.0552429065332173e-02  3.4248063545538110e-02  1.8853539217584085e-02  4.6371990411211792e-03  -8.2971273751032571e-03  -1.9969382674348290e-02  -3.0478557897074432e-02  -3.9962077870117463e-02  -4.8563680674213489e-02  -5.6411151423016212e-02  -6.3603355199132280e-02  -7.0205211108902085e-02  -7.6248883321547681e-02  -8.1739456770786770e-02  -8.6663370608511855e-02  -9.0998144967669281e-02  -9.4722183560551218e-02  -9.7823875360637497e-02  -1.0030951155877883e-01  -1.0220988737924463e-01  -1.0358558573974713e-01  -1.0453113786956446e-01  -1.0517826905031595e-01  -1.0569864123733537e-01  -1.0630651382185501e-01  -1.0726239065207883e-01  -1.0887811198509742e-01  -1.1152756861737455e-01  -1.1565706635120074e-01  -1.2181669148468742e-01  -1.3063084155433022e-01  -1.4285779619889138e-01  -1.5890346452157456e-01  -1.7920762913273677e-01  -2.0149072936166620e-01  -2.2608168853517208e-01  -2.4101117283856011e-01  -2.6278496045106570e-01  -2.3320394812471262e-01  -2.9798649302721053e-01  -2.5755770668286571e-01  -2.6543166183942501e-01  -2.5235859722792642e-01  -2.3464234741071671e-01  -2.1316334760905120e-01  -1.8757499922093329e-01  -1.5844344489270948e-01  -1.2645036850050040e-01  -9.2497857536681174e-02  -5.7625171254189103e-02  -2.2946451205992126e-02  1.0417513979248238e-02  4.1404253508119500e-02  6.9068364452020928e-02  9.2630365228480588e-02  1.1151386218468620e-01  1.2537010123198222e-01  1.3408941079538436e-01  1.3779903239355232e-01  1.3684671956811298e-01  1.3176973996127783e-01  1.2324990117237979e-01  1.1205717015535868e-01  9.8986989702154707e-02  8.4798714015607957e-02  7.0163434325307916e-02  5.5628090213176787e-02  4.1599274547597133e-02  2.8345846569901870e-02  1.6015962157082824e-02  4.6625250223649734e-03  -5.7286525935608089e-03  -1.5212246625099828e-02  -2.3860955085243551e-02  -3.1748365383921104e-02  -3.8937416778061944e-02  -4.5474138209183432e-02  -5.1385966037660824e-02  -5.6683710594339132e-02  -6.1366131062288130e-02  -6.5426093285666370e-02  -6.8857424296245001e-02  -7.1661784983301210e-02  -7.3855116380232025e-02  -7.5473426181314654e-02  -7.6577854366040574e-02  -7.7259081479521347e-02  -7.7641263675405484e-02  -7.7885819550100349e-02  -7.8195507534742498e-02  -7.8819843387294641e-02  -8.0062195131437808e-02  -8.2293056186054897e-02  -8.5961335872264538e-02  -9.1628755900688599e-02  -9.9923157816665026e-02  -1.1160477876246948e-01  -1.2695303573023001e-01  -1.4634424214110847e-01  -1.6692525751614001e-01  -1.8966101987949918e-01  -2.0082789915184560e-01  -2.2186872542967132e-01  -1.8573543756180269e-01  -2.5755770668286571e-01  -2.1551317246746959e-01  -2.6569072847765862e-01  -2.4204691500860290e-01  -2.2186076842017310e-01  -1.9819926605301386e-01  -1.7157251134667928e-01  -1.4233275215077079e-01  -1.1104530443194553e-01  -7.8451272251783666e-02  -4.5407773481046625e-02  -1.2836992055727251e-02  1.8329381315117847e-02  4.7204918237522847e-02  7.2999121438185141e-02  9.5060787337324565e-02  1.1291161537118091e-01  1.2626828546971597e-01  1.3505188229483980e-01  1.3938403096065446e-01  1.3956973164431222e-01  1.3606768238304687e-01  1.2945015342940946e-01  1.2035591487801610e-01  1.0944112402179836e-01  9.7333705843275761e-02  8.4596337725509702e-02  7.1701491055441283e-02  5.9019665857520068e-02  4.6819653297854792e-02  3.5278071237034532e-02  2.4494789465128727e-02  1.4511022890391695e-02  5.3275174793037455e-03  -3.0790237254487139e-03  -1.0742412673576533e-02  -1.7696956575208932e-02  -2.3971060531646098e-02  -2.9584247383678687e-02  -3.4547083903348097e-02  -3.8863383413999732e-02  -4.2533968641645256e-02  -4.5561368987097131e-02  -4.7954901504373988e-02  -4.9735778766963466e-02  -5.0941991384168231e-02  -5.1632896002187234e-02  -5.1893522830473257e-02  -5.1838767707511051e-02  -5.1617775133136937e-02  -5.1418952178060515e-02  -5.1476697168300924e-02  -5.2080048200584476e-02  -5.3588116776896615e-02  -5.6441942137590094e-02  -6.1202071734867462e-02  -6.8484971303129846e-02  -7.9043862188432221e-02  -9.3032400586081754e-02  -1.1082805505055292e-01  -1.2907568547841483e-01  -1.4963371717990190e-01  -1.5690931178466841e-01  -1.7774745490531788e-01  -1.3489797834868864e-01  -2.1551317246746959e-01  -1.7346863825207348e-01  -2.6850391995244710e-01  -2.3473239806331972e-01  -2.1261041127039837e-01  -1.8705047512808418e-01  -1.5950814286390785e-01  -1.3013913384304016e-01  -9.9424262134314462e-02  -6.7975896535108632e-02  -3.6503729505083224e-02  -5.7696683032266351e-03  2.3458424516139664e-02  5.0451821044391311e-02  7.4562727542882054e-02  9.5260278191170014e-02  1.1215846102091141e-01  1.2503419580601602e-01  1.3383436730689344e-01  1.3867134676207721e-01  1.3980732508320884e-01  1.3762877281420241e-01  1.3261333886713947e-01  1.2529246781541317e-01  1.1621356446711077e-01  1.0590556329675244e-01  9.4851061277080373e-02  8.3466986338541646e-02  7.2094339467252452e-02  6.0996277027758970e-02  5.0362915399340943e-02  4.0320822544060927e-02  3.0945154918995754e-02  2.2272624663646996e-02  1.4313867034397777e-02  7.0641641461113014e-03  5.1190197703508125e-04  -5.3555317732486380e-03  -1.0548370985993937e-02  -1.5073374954996189e-02  -1.8934597866868703e-02  -2.2135573751568126e-02  -2.4682445613915270e-02  -2.6587662459649882e-02  -2.7873926064348895e-02  -2.8578216760776664e-02  -2.8755797240899401e-02  -2.8484241182174755e-02  -2.7867616980629721e-02  -2.7041167725091495e-02  -2.6176905955086666e-02  -2.5491270438154367e-02  -2.5254909901132706e-02  -2.5809807541923753e-02  -2.7581409239166216e-02  -3.1119397771843974e-02  -3.7018941636164565e-02  -4.6023478930856641e-02  -5.8174460657521215e-02  -7.3917899958112779e-02  -8.9470101896450993e-02  -1.0776636923322619e-01  -1.1121070816679060e-01  -1.3235759034832731e-01  -8.2644235836647220e-02  -1.7346863825207348e-01  -1.3303985190772868e-01  -2.7290894593527704e-01  -2.2965575135323346e-01  -2.0616379833801207e-01  -1.7903465999084145e-01  -1.5077201456941766e-01  -1.2133824048842629e-01  -9.1152980058553212e-02  -6.0723977553114664e-02  -3.0640182752761678e-02  -1.5296143820292859e-03  2.5978969514673204e-02  5.1293076073302912e-02  7.3890292721026957e-02  9.3347041459921232e-02  1.0936053386221667e-01  1.2176251689876913e-01  1.3052392626961065e-01  1.3575020963754519e-01  1.3766785541996268e-01  1.3660345041465130e-01  1.3295733742000876e-01  1.2717447621503661e-01  1.1971534012191139e-01  1.1102949049596160e-01  1.0153392677523540e-01  9.1597490478669830e-02  8.1531721212588587e-02  7.1587769901918577e-02  6.1958400140017716e-02  5.2783784041571899e-02  4.4159701448155370e-02  3.6146835556260262e-02  2.8780046602465480e-02  2.2076768789655598e-02  1.6043946519574307e-02  1.0683203265559726e-02  5.9941619776310538e-03  1.9760303094404526e-03  -1.3723195675882389e-03  -4.0534691042063958e-03  -6.0734651841089704e-03  -7.4444347169327820e-03  -8.1875905322161650e-03  -8.3364725496075515e-03  -7.9403777635873498e-03  -7.0680137755000025e-03  -5.8115396720074784e-03  -4.2913246346233842e-03  -2.6618768643606309e-03  -1.1200890734052794e-03  8.4177903949549752e-05  6.2975935711291652e-04  1.1189129778837541e-04  -2.0016403108840770e-03  -6.2797524001920405e-03  -1.3458086607662172e-02  -2.3489011464644754e-02  -3.6945492817490565e-02  -4.9684120324488941e-02  -6.5815841374282535e-02  -6.5626200973149862e-02  -8.7539902869105846e-02  -3.0861918801572737e-02  -1.3303985190772868e-01  -9.5780469020923811e-02  -2.7827706813493480e-01  -2.2626696975740226e-01  -2.0188897476806281e-01  -1.7347524292048411e-01  -1.4466300916050884e-01  -1.1522403469871803e-01  -8.5536689518713460e-02  -5.6020767938871195e-02  -2.7163524962501576e-02  5.2040716737520969e-04  2.6520353751017193e-02  5.0359822495790380e-02  7.1623485287729882e-02  8.9979661998791927e-02  1.0519706592950652e-01  1.1715484038720871e-01  1.2584533130687489e-01  1.3136957131803040e-01  1.3392604682406672e-01  1.3379389948351242e-01  1.3131221506845714e-01  1.2685736609660603e-01  1.2082045814373560e-01  1.1358675236515765e-01  1.0551853395275126e-01  9.6942355541656131e-02  8.8140993315183047e-02  7.9349928972966360e-02  7.0757750554169149e-02  6.2509612187222133e-02  5.4712772727209091e-02  4.7443256252144642e-02  4.0752775846560778e-02  3.4675238771290411e-02  2.9232335877988978e-02  2.4437922951524058e-02  2.0301069191400411e-02  1.6827800451717868e-02  1.4021660908816272e-02  1.1883281518889210e-02  1.0409161326868905e-02  9.5898557065106100e-03  9.4077282617118507e-03  9.8343640289463470e-03  1.0827671118615554e-02  1.2328606696030626e-02  1.4257355464344168e-02  1.6508609966252693e-02  1.8945492278907263e-02  2.1390960066741471e-02  2.3616699606642363e-02  2.5323987273296666e-02  2.6131157572770191e-02  2.5526974880231139e-02  2.2969159026045061e-02  1.7725334461169480e-02  9.9039867163065107e-03  -1.2342366842091567e-03  -1.1248871730364212e-02  -2.5440103704205470e-02  -2.1914023250347716e-02  -4.4984476082063546e-02  1.8694318096917767e-02  -9.5780469020923811e-02  -6.3122346780695879e-02  -2.8417991883792343e-01  -2.2418645078700822e-01  -1.9927667900689705e-01  -1.6979490785604370e-01  -1.4055780003607410e-01  -1.1114901946131768e-01  -8.1921469002889102e-02  -5.3219714081241508e-02  -2.5444330654260727e-02  9.8706869680910522e-04  2.5664619337416813e-02  4.8210609578237702e-02  6.8300731210465482e-02  8.5681416204573785e-02  1.0018236761552872e-01  1.1172366239297270e-01  1.2031712909849254e-01  1.2606211664410333e-01  1.2913618845681635e-01  1.2978169949973678e-01  1.2828952061520826e-01  1.2498137976887941e-01  1.2019230429325753e-01  1.1425451195813918e-01  1.0748381345526614e-01  1.00169213254