<?xml version="1.0"?>
<VTKFile type="UnstructuredGrid"  version="0.1"  >
<UnstructuredGrid>
<Piece  NumberOfPoints="4225" NumberOfCells="8192">
<Points>
<DataArray  type="Float64"  NumberOfComponents="3"  format="ascii">-1 -1 0  -0.96875 -1 0  -0.9375 -1 0  -0.90625 -1 0  -0.875 -1 0  -0.84375 -1 0  -0.8125 -1 0  -0.78125 -1 0  -0.75 -1 0  -0.71875 -1 0  -0.6875 -1 0  -0.65625 -1 0  -0.625 -1 0  -0.59375 -1 0  -0.5625 -1 0  -0.53125 -1 0  -0.5 -1 0  -0.46875 -1 0  -0.4375 -1 0  -0.40625 -1 0  -0.375 -1 0  -0.34375 -1 0  -0.3125 -1 0  -0.28125 -1 0  -0.25 -1 0  -0.21875 -1 0  -0.1875 -1 0  -0.15625 -1 0  -0.125 -1 0  -0.09375 -1 0  -0.0625 -1 0  -0.03125 -1 0  0 -1 0  0.03125 -1 0  0.0625 -1 0  0.09375 -1 0  0.125 -1 0  0.15625 -1 0  0.1875 -1 0  0.21875 -1 0  0.25 -1 0  0.28125 -1 0  0.3125 -1 0  0.34375 -1 0  0.375 -1 0  0.40625 -1 0  0.4375 -1 0  0.46875 -1 0  0.5 -1 0  0.53125 -1 0  0.5625 -1 0  0.59375 -1 0  0.625 -1 0  0.65625 -1 0  0.6875 -1 0  0.71875 -1 0  0.75 -1 0  0.78125 -1 0  0.8125 -1 0  0.84375 -1 0  0.875 -1 0  0.90625 -1 0  0.9375 -1 0  0.96875 -1 0  1 -1 0  -1 -0.96875 0  -0.96875 -0.96875 0  -0.9375 -0.96875 0  -0.90625 -0.96875 0  -0.875 -0.96875 0  -0.84375 -0.96875 0  -0.8125 -0.96875 0  -0.78125 -0.96875 0  -0.75 -0.96875 0  -0.71875 -0.96875 0  -0.6875 -0.96875 0  -0.65625 -0.96875 0  -0.625 -0.96875 0  -0.59375 -0.96875 0  -0.5625 -0.96875 0  -0.53125 -0.96875 0  -0.5 -0.96875 0  -0.46875 -0.96875 0  -0.4375 -0.96875 0  -0.40625 -0.96875 0  -0.375 -0.96875 0  -0.34375 -0.96875 0  -0.3125 -0.96875 0  -0.28125 -0.96875 0  -0.25 -0.96875 0  -0.21875 -0.96875 0  -0.1875 -0.96875 0  -0.15625 -0.96875 0  -0.125 -0.96875 0  -0.09375 -0.96875 0  -0.0625 -0.96875 0  -0.03125 -0.96875 0  0 -0.96875 0  0.03125 -0.96875 0  0.0625 -0.96875 0  0.09375 -0.96875 0  0.125 -0.96875 0  0.15625 -0.96875 0  0.1875 -0.96875 0  0.21875 -0.96875 0  0.25 -0.96875 0  0.28125 -0.96875 0  0.3125 -0.96875 0  0.34375 -0.96875 0  0.375 -0.96875 0  0.40625 -0.96875 0  0.4375 -0.96875 0  0.46875 -0.96875 0  0.5 -0.96875 0  0.53125 -0.96875 0  0.5625 -0.96875 0  0.59375 -0.96875 0  0.625 -0.96875 0  0.65625 -0.96875 0  0.6875 -0.96875 0  0.71875 -0.96875 0  0.75 -0.96875 0  0.78125 -0.96875 0  0.8125 -0.96875 0  0.84375 -0.96875 0  0.875 -0.96875 0  0.90625 -0.96875 0  0.9375 -0.96875 0  0.96875 -0.96875 0  1 -0.96875 0  -1 -0.9375 0  -0.96875 -0.9375 0  -0.9375 -0.9375 0  -0.90625 -0.9375 0  -0.875 -0.9375 0  -0.84375 -0.9375 0  -0.8125 -0.9375 0  -0.78125 -0.9375 0  -0.75 -0.9375 0  -0.71875 -0.9375 0  -0.6875 -0.9375 0  -0.65625 -0.9375 0  -0.625 -0.9375 0  -0.59375 -0.9375 0  -0.5625 -0.9375 0  -0.53125 -0.9375 0  -0.5 -0.9375 0  -0.46875 -0.9375 0  -0.4375 -0.9375 0  -0.40625 -0.9375 0  -0.375 -0.9375 0  -0.34375 -0.9375 0  -0.3125 -0.9375 0  -0.28125 -0.9375 0  -0.25 -0.9375 0  -0.21875 -0.9375 0  -0.1875 -0.9375 0  -0.15625 -0.9375 0  -0.125 -0.9375 0  -0.09375 -0.9375 0  -0.0625 -0.9375 0  -0.03125 -0.9375 0  0 -0.9375 0  0.03125 -0.9375 0  0.0625 -0.9375 0  0.09375 -0.9375 0  0.125 -0.9375 0  0.15625 -0.9375 0  0.1875 -0.9375 0  0.21875 -0.9375 0  0.25 -0.9375 0  0.28125 -0.9375 0  0.3125 -0.9375 0  0.34375 -0.9375 0  0.375 -0.9375 0  0.40625 -0.9375 0  0.4375 -0.9375 0  0.46875 -0.9375 0  0.5 -0.9375 0  0.53125 -0.9375 0  0.5625 -0.9375 0  0.59375 -0.9375 0  0.625 -0.9375 0  0.65625 -0.9375 0  0.6875 -0.9375 0  0.71875 -0.9375 0  0.75 -0.9375 0  0.78125 -0.9375 0  0.8125 -0.9375 0  0.84375 -0.9375 0  0.875 -0.9375 0  0.90625 -0.9375 0  0.9375 -0.9375 0  0.96875 -0.9375 0  1 -0.9375 0  -1 -0.90625 0  -0.96875 -0.90625 0  -0.9375 -0.90625 0  -0.90625 -0.90625 0  -0.875 -0.90625 0  -0.84375 -0.90625 0  -0.8125 -0.90625 0  -0.78125 -0.90625 0  -0.75 -0.90625 0  -0.71875 -0.90625 0  -0.6875 -0.90625 0  -0.65625 -0.90625 0  -0.625 -0.90625 0  -0.59375 -0.90625 0  -0.5625 -0.90625 0  -0.53125 -0.90625 0  -0.5 -0.90625 0  -0.46875 -0.90625 0  -0.4375 -0.90625 0  -0.40625 -0.90625 0  -0.375 -0.90625 0  -0.34375 -0.90625 0  -0.3125 -0.90625 0  -0.28125 -0.90625 0  -0.25 -0.90625 0  -0.21875 -0.90625 0  -0.1875 -0.90625 0  -0.15625 -0.90625 0  -0.125 -0.90625 0  -0.09375 -0.90625 0  -0.0625 -0.90625 0  -0.03125 -0.90625 0  0 -0.90625 0  0.03125 -0.90625 0  0.0625 -0.90625 0  0.09375 -0.90625 0  0.125 -0.90625 0  0.15625 -0.90625 0  0.1875 -0.90625 0  0.21875 -0.90625 0  0.25 -0.90625 0  0.28125 -0.90625 0  0.3125 -0.90625 0  0.34375 -0.90625 0  0.375 -0.90625 0  0.40625 -0.90625 0  0.4375 -0.90625 0  0.46875 -0.90625 0  0.5 -0.90625 0  0.53125 -0.90625 0  0.5625 -0.90625 0  0.59375 -0.90625 0  0.625 -0.90625 0  0.65625 -0.90625 0  0.6875 -0.90625 0  0.71875 -0.90625 0  0.75 -0.90625 0  0.78125 -0.90625 0  0.8125 -0.90625 0  0.84375 -0.90625 0  0.875 -0.90625 0  0.90625 -0.90625 0  0.9375 -0.90625 0  0.96875 -0.90625 0  1 -0.90625 0  -1 -0.875 0  -0.96875 -0.875 0  -0.9375 -0.875 0  -0.90625 -0.875 0  -0.875 -0.875 0  -0.84375 -0.875 0  -0.8125 -0.875 0  -0.78125 -0.875 0  -0.75 -0.875 0  -0.71875 -0.875 0  -0.6875 -0.875 0  -0.65625 -0.875 0  -0.625 -0.875 0  -0.59375 -0.875 0  -0.5625 -0.875 0  -0.53125 -0.875 0  -0.5 -0.875 0  -0.46875 -0.875 0  -0.4375 -0.875 0  -0.40625 -0.875 0  -0.375 -0.875 0  -0.34375 -0.875 0  -0.3125 -0.875 0  -0.28125 -0.875 0  -0.25 -0.875 0  -0.21875 -0.875 0  -0.1875 -0.875 0  -0.15625 -0.875 0  -0.125 -0.875 0  -0.09375 -0.875 0  -0.0625 -0.875 0  -0.03125 -0.875 0  0 -0.875 0  0.03125 -0.875 0  0.0625 -0.875 0  0.09375 -0.875 0  0.125 -0.875 0  0.15625 -0.875 0  0.1875 -0.875 0  0.21875 -0.875 0  0.25 -0.875 0  0.28125 -0.875 0  0.3125 -0.875 0  0.34375 -0.875 0  0.375 -0.875 0  0.40625 -0.875 0  0.4375 -0.875 0  0.46875 -0.875 0  0.5 -0.875 0  0.53125 -0.875 0  0.5625 -0.875 0  0.59375 -0.875 0  0.625 -0.875 0  0.65625 -0.875 0  0.6875 -0.875 0  0.71875 -0.875 0  0.75 -0.875 0  0.78125 -0.875 0  0.8125 -0.875 0  0.84375 -0.875 0  0.875 -0.875 0  0.90625 -0.875 0  0.9375 -0.875 0  0.96875 -0.875 0  1 -0.875 0  -1 -0.84375 0  -0.96875 -0.84375 0  -0.9375 -0.84375 0  -0.90625 -0.84375 0  -0.875 -0.84375 0  -0.84375 -0.84375 0  -0.8125 -0.84375 0  -0.78125 -0.84375 0  -0.75 -0.84375 0  -0.71875 -0.84375 0  -0.6875 -0.84375 0  -0.65625 -0.84375 0  -0.625 -0.84375 0  -0.59375 -0.84375 0  -0.5625 -0.84375 0  -0.53125 -0.84375 0  -0.5 -0.84375 0  -0.46875 -0.84375 0  -0.4375 -0.84375 0  -0.40625 -0.84375 0  -0.375 -0.84375 0  -0.34375 -0.84375 0  -0.3125 -0.84375 0  -0.28125 -0.84375 0  -0.25 -0.84375 0  -0.21875 -0.84375 0  -0.1875 -0.84375 0  -0.15625 -0.84375 0  -0.125 -0.84375 0  -0.09375 -0.84375 0  -0.0625 -0.84375 0  -0.03125 -0.84375 0  0 -0.84375 0  0.03125 -0.84375 0  0.0625 -0.84375 0  0.09375 -0.84375 0  0.125 -0.84375 0  0.15625 -0.84375 0  0.1875 -0.84375 0  0.21875 -0.84375 0  0.25 -0.84375 0  0.28125 -0.84375 0  0.3125 -0.84375 0  0.34375 -0.84375 0  0.375 -0.84375 0  0.40625 -0.84375 0  0.4375 -0.84375 0  0.46875 -0.84375 0  0.5 -0.84375 0  0.53125 -0.84375 0  0.5625 -0.84375 0  0.59375 -0.84375 0  0.625 -0.84375 0  0.65625 -0.84375 0  0.6875 -0.84375 0  0.71875 -0.84375 0  0.75 -0.84375 0  0.78125 -0.84375 0  0.8125 -0.84375 0  0.84375 -0.84375 0  0.875 -0.84375 0  0.90625 -0.84375 0  0.9375 -0.84375 0  0.96875 -0.84375 0  1 -0.84375 0  -1 -0.8125 0  -0.96875 -0.8125 0  -0.9375 -0.8125 0  -0.90625 -0.8125 0  -0.875 -0.8125 0  -0.84375 -0.8125 0  -0.8125 -0.8125 0  -0.78125 -0.8125 0  -0.75 -0.8125 0  -0.71875 -0.8125 0  -0.6875 -0.8125 0  -0.65625 -0.8125 0  -0.625 -0.8125 0  -0.59375 -0.8125 0  -0.5625 -0.8125 0  -0.53125 -0.8125 0  -0.5 -0.8125 0  -0.46875 -0.8125 0  -0.4375 -0.8125 0  -0.40625 -0.8125 0  -0.375 -0.8125 0  -0.34375 -0.8125 0  -0.3125 -0.8125 0  -0.28125 -0.8125 0  -0.25 -0.8125 0  -0.21875 -0.8125 0  -0.1875 -0.8125 0  -0.15625 -0.8125 0  -0.125 -0.8125 0  -0.09375 -0.8125 0  -0.0625 -0.8125 0  -0.03125 -0.8125 0  0 -0.8125 0  0.03125 -0.8125 0  0.0625 -0.8125 0  0.09375 -0.8125 0  0.125 -0.8125 0  0.15625 -0.8125 0  0.1875 -0.8125 0  0.21875 -0.8125 0  0.25 -0.8125 0  0.28125 -0.8125 0  0.3125 -0.8125 0  0.34375 -0.8125 0  0.375 -0.8125 0  0.40625 -0.8125 0  0.4375 -0.8125 0  0.46875 -0.8125 0  0.5 -0.8125 0  0.53125 -0.8125 0  0.5625 -0.8125 0  0.59375 -0.8125 0  0.625 -0.8125 0  0.65625 -0.8125 0  0.6875 -0.8125 0  0.71875 -0.8125 0  0.75 -0.8125 0  0.78125 -0.8125 0  0.8125 -0.8125 0  0.84375 -0.8125 0  0.875 -0.8125 0  0.90625 -0.8125 0  0.9375 -0.8125 0  0.96875 -0.8125 0  1 -0.8125 0  -1 -0.78125 0  -0.96875 -0.78125 0  -0.9375 -0.78125 0  -0.90625 -0.78125 0  -0.875 -0.78125 0  -0.84375 -0.78125 0  -0.8125 -0.78125 0  -0.78125 -0.78125 0  -0.75 -0.78125 0  -0.71875 -0.78125 0  -0.6875 -0.78125 0  -0.65625 -0.78125 0  -0.625 -0.78125 0  -0.59375 -0.78125 0  -0.5625 -0.78125 0  -0.53125 -0.78125 0  -0.5 -0.78125 0  -0.46875 -0.78125 0  -0.4375 -0.78125 0  -0.40625 -0.78125 0  -0.375 -0.78125 0  -0.34375 -0.78125 0  -0.3125 -0.78125 0  -0.28125 -0.78125 0  -0.25 -0.78125 0  -0.21875 -0.78125 0  -0.1875 -0.78125 0  -0.15625 -0.78125 0  -0.125 -0.78125 0  -0.09375 -0.78125 0  -0.0625 -0.78125 0  -0.03125 -0.78125 0  0 -0.78125 0  0.03125 -0.78125 0  0.0625 -0.78125 0  0.09375 -0.78125 0  0.125 -0.78125 0  0.15625 -0.78125 0  0.1875 -0.78125 0  0.21875 -0.78125 0  0.25 -0.78125 0  0.28125 -0.78125 0  0.3125 -0.78125 0  0.34375 -0.78125 0  0.375 -0.78125 0  0.40625 -0.78125 0  0.4375 -0.78125 0  0.46875 -0.78125 0  0.5 -0.78125 0  0.53125 -0.78125 0  0.5625 -0.78125 0  0.59375 -0.78125 0  0.625 -0.78125 0  0.65625 -0.78125 0  0.6875 -0.78125 0  0.71875 -0.78125 0  0.75 -0.78125 0  0.78125 -0.78125 0  0.8125 -0.78125 0  0.84375 -0.78125 0  0.875 -0.78125 0  0.90625 -0.78125 0  0.9375 -0.78125 0  0.96875 -0.78125 0  1 -0.78125 0  -1 -0.75 0  -0.96875 -0.75 0  -0.9375 -0.75 0  -0.90625 -0.75 0  -0.875 -0.75 0  -0.84375 -0.75 0  -0.8125 -0.75 0  -0.78125 -0.75 0  -0.75 -0.75 0  -0.71875 -0.75 0  -0.6875 -0.75 0  -0.65625 -0.75 0  -0.625 -0.75 0  -0.59375 -0.75 0  -0.5625 -0.75 0  -0.53125 -0.75 0  -0.5 -0.75 0  -0.46875 -0.75 0  -0.4375 -0.75 0  -0.40625 -0.75
[...]
<PointData  Scalars="f_15"> 
<DataArray  type="Float64"  Name="f_15"  format="ascii">-4.6112875066607412e-01  -4.5669852084504542e-01  -4.4357808262948006e-01  -4.2227164710197590e-01  -3.9359800863106792e-01  -3.5865907906283129e-01  -3.1879754186659653e-01  -2.7554525356220677e-01  -2.3056437533303697e-01  -1.8558349710386735e-01  -1.4233120879947747e-01  -1.0246967160324262e-01  -6.7530742035006169e-02  -3.8857103564098154e-02  -1.7550668036593907e-02  -4.4302298210286417e-03  0.0000000000000000e+00  -4.4302298210286417e-03  -1.7550668036593928e-02  -3.8857103564098189e-02  -6.7530742035006225e-02  -1.0246967160324268e-01  -1.4233120879947761e-01  -1.8558349710386746e-01  -2.3056437533303706e-01  -2.7554525356220677e-01  -3.1879754186659648e-01  -3.5865907906283140e-01  -3.9359800863106792e-01  -4.2227164710197590e-01  -4.4357808262948017e-01  -4.5669852084504542e-01  -4.6112875066607412e-01  -4.5669852084504542e-01  -4.4357808262948017e-01  -4.2227164710197590e-01  -3.9359800863106792e-01  -3.5865907906283140e-01  -3.1879754186659648e-01  -2.7554525356220677e-01  -2.3056437533303706e-01  -1.8558349710386746e-01  -1.4233120879947761e-01  -1.0246967160324268e-01  -6.7530742035006225e-02  -3.8857103564098189e-02  -1.7550668036593928e-02  -4.4302298210286417e-03  0.0000000000000000e+00  -4.4302298210286417e-03  -1.7550668036593907e-02  -3.8857103564098154e-02  -6.7530742035006169e-02  -1.0246967160324262e-01  -1.4233120879947747e-01  -1.8558349710386735e-01  -2.3056437533303697e-01  -2.7554525356220677e-01  -3.1879754186659653e-01  -3.5865907906283129e-01  -3.9359800863106792e-01  -4.2227164710197590e-01  -4.4357808262948006e-01  -4.5669852084504542e-01  -4.6112875066607412e-01  -4.5669852084504542e-01  -3.3118354245682691e-01  -2.9874706278885366e-01  -2.4750635898947032e-01  -1.8718545268804512e-01  -1.1971844110053129e-01  -4.7359327650910575e-02  2.7748957422545462e-02  1.0349710319285738e-01  1.7780343158845044e-01  2.4864027477648848e-01  3.1408122864465260e-01  3.7235770675524088e-01  4.2191587892319526e-01  4.6146807069792573e-01  4.9003514494732275e-01  5.0697819393166288e-01  5.1201868430469699e-01  5.0524662227637918e-01  4.8711605633731631e-01  4.5842698470390791e-01  4.2029219264314643e-01  3.7408753363999370e-01  3.2138465973233737e-01  2.6386718883426002e-01  2.0323460322791725e-01  1.4110273578341231e-01  7.8913649220717030e-02  1.7869044513725129e-02  -4.1101976146036834e-02  -9.7337741885502010e-02  -1.5040799900844240e-01  -2.0006098530742736e-01  -2.4616926850280357e-01  -2.8868600881675205e-01  -3.2761582694019209e-01  -3.6299774873309726e-01  -3.9489409109616530e-01  -4.2337974443554471e-01  -4.4852914432566071e-01  -4.7040189212926725e-01  -4.8903017163849966e-01  -5.0441188681988791e-01  -5.1651225092718100e-01  -5.2527479641592212e-01  -5.3064043838791131e-01  -5.3257162175910000e-01  -5.3107728470706239e-01  -5.2623425146407155e-01  -5.1820090457619017e-01  -5.0722035387293551e-01  -4.9361153305683048e-01  -4.7774965858469776e-01  -4.6003685109142323e-01  -4.4087582311935297e-01  -4.2063263695865843e-01  -3.9967985148741003e-01  -3.7831508151128707e-01  -3.5734505290797236e-01  -3.3717237356210400e-01  -3.2209268395934143e-01  -3.0948172568685089e-01  -3.2333556861396406e-01  -3.0935492576367934e-01  -4.5669852084504542e-01  -4.4357808262948006e-01  -3.1438788800565370e-01  -3.1805883939533225e-01  -2.8329550188450697e-01  -2.4294245731142830e-01  -1.9619190008381143e-01  -1.4493591083858934e-01  -9.0837916680589700e-02  -3.5575073474227774e-02  1.9173774089000974e-02  7.1751926393880464e-02  1.2056918040711592e-01  1.6415713634947804e-01  2.0122646892109411e-01  2.3071913661412402e-01  2.5185119193380290e-01  2.6414372941385700e-01  2.6744080518438590e-01  2.6191338525563490e-01  2.4804846694080981e-01  2.2662214605008235e-01  1.9865563297918021e-01  1.6535385691583737e-01  1.2802840492303152e-01  8.8009698267117478e-02  4.6557467338972119e-02  4.7818051454595690e-03  -3.6412227205302579e-02  -7.6347012150712878e-02  -1.1455964804139236e-01  -1.5076063402764808e-01  -1.8477724014168248e-01  -2.1649692862598097e-01  -2.4582345839564509e-01  -2.7265225392119879e-01  -2.9686525632662963e-01  -3.1834065883314083e-01  -3.3697104061390487e-01  -3.5268361592867242e-01  -3.6545809961557435e-01  -3.7533935000391172e-01  -3.8244348129503236e-01  -3.8695673170705935e-01  -3.8912705034082062e-01  -3.8924875841420514e-01  -3.8764166888513951e-01  -3.8462686877737323e-01  -3.8050245325714005e-01  -3.7552273743074616e-01  -3.6988439883404700e-01  -3.6372189298770258e-01  -3.5711289944157243e-01  -3.5009373097141300e-01  -3.4268033654116842e-01  -3.3490184404737006e-01  -3.2681828105338462e-01  -3.1862223858881455e-01  -3.1054141077539549e-01  -3.0349698193267860e-01  -2.9767351786409807e-01  -2.9762017562217857e-01  -2.9751865543030259e-01  -3.2394733008723076e-01  -2.9683013761824500e-01  -4.4357808262948006e-01  -4.2227164710197590e-01  -3.0748394563999054e-01  -3.0175735751026378e-01  -2.6344199013748465e-01  -2.2229981625625855e-01  -1.7459210706074674e-01  -1.2250005799320166e-01  -6.7507940760455257e-02  -1.1193499235930923e-02  4.4828549668148490e-02  9.8926653956855015e-02  1.4949826790655393e-01  1.9503032085791178e-01  2.3416568385509126e-01  2.6576718175284314e-01  2.8897255077460304e-01  3.0323590768970254e-01  3.0835290591794068e-01  3.0446779532778867e-01  2.9206105134542126e-01  2.7191671399823586e-01  2.4506946505089724e-01  2.1273335987924163e-01  1.7621697450485244e-01  1.3683310312714730e-01  9.5813797349980648e-02  5.4242144033684742e-02  1.3009754538739348e-02  -2.7196201518903319e-02  -6.5878863564499235e-02  -1.0269821074697032e-01  -1.3742868598089078e-01  -1.6991796564028652e-01  -2.0005415533803450e-01  -2.2774490251202331e-01  -2.5290832707652566e-01  -2.7547318575653057e-01  -2.9538455501076172e-01  -3.1261142505608897e-01  -3.2715340908666518e-01  -3.3904490079591432e-01  -3.4835598501341369e-01  -3.5519020443997384e-01  -3.5967974136037284e-01  -3.6197889992764865e-01  -3.6225688878074830e-01  -3.6069097023755775e-01  -3.5746088566906120e-01  -3.5274529412903938e-01  -3.4672055731224322e-01  -3.3956203501279791e-01  -3.3144741848405507e-01  -3.2256292906290707e-01  -3.1310926682235490e-01  -3.0331997888253609e-01  -2.9345799791902094e-01  -2.8391878244993535e-01  -2.7506223108496586e-01  -2.6799792940860628e-01  -2.6257525233739970e-01  -2.6384472665844794e-01  -2.6227199799394152e-01  -2.9025295406119322e-01  -2.4044809564852185e-01  -4.2227164710197590e-01  -3.9359800863106792e-01  -3.1434955089410560e-01  -2.9804891210479112e-01  -2.6126299430998701e-01  -2.2194105488426918e-01  -1.7767246092657582e-01  -1.3033286091509175e-01  -8.1014136336342732e-02  -3.1000592490586940e-02  1.8399737677572119e-02  6.5868110450938988e-02  1.1011430153007569e-01  1.4992483277781321e-01  1.8421636053534096e-01  2.1208806256817134e-01  2.3286717115588454e-01  2.4614288330381631e-01  2.5178513841533368e-01  2.4994612297921029e-01  2.4104358439029011e-01  2.2572652790580106e-01  2.0482547931008016e-01  1.7929150393476606e-01  1.5012997072836309e-01  1.1833634932223214e-01  8.4841287181422517e-02  5.0470759959350790e-02  1.5924266266323650e-02  -1.8229244482843004e-02  -5.1540994918164322e-02  -8.3662663297323150e-02  -1.1432294337492251e-01  -1.4330529141815784e-01  -1.7043027328547986e-01  -1.9554415531845237e-01  -2.1851369925328576e-01  -2.3922596297683163e-01  -2.5759124819945489e-01  -2.7354732564431566e-01  -2.8706334570820635e-01  -2.9814240039539391e-01  -3.0682215406693675e-01  -3.1317342617561555e-01  -3.1729685360903903e-01  -3.1931805632354798e-01  -3.1938184927911167e-01  -3.1764626701321846e-01  -3.1427720854751662e-01  -3.0944457545575599e-01  -3.0332056431370680e-01  -2.9608069439132367e-01  -2.8790739096737555e-01  -2.7899735711222567e-01  -2.6956864531733898e-01  -2.5988245159468215e-01  -2.5023430937269697e-01  -2.4107344449497603e-01  -2.3276239945519248e-01  -2.2652670384532261e-01  -2.2179160917640545e-01  -2.2428890336266691e-01  -2.2065708572410583e-01  -2.5082295519495507e-01  -1.8102841478074883e-01  -3.9359800863106792e-01  -3.5865907906283129e-01  -3.2918823505369765e-01  -2.9946083884842878e-01  -2.6147771360592964e-01  -2.2119865772606431e-01  -1.7763124840320466e-01  -1.3189129911502340e-01  -8.4832695277292466e-02  -3.7507046613908968e-02  9.0000586378696044e-03  5.3575939711957003e-02  9.5121206293390728e-02  1.3259315167482211e-01  1.6505334000661470e-01  1.9171477524258085e-01  2.1198378966742293e-01  2.2549195271145492e-01  2.3211433115371144e-01  2.3197168812404448e-01  2.2541593076596242e-01  2.1299976126682693e-01  1.9543337841073755e-01  1.7353257328959359e-01  1.4816378025452254e-01  1.2019190011692152e-01  9.0436179555172136e-02  5.9637864995719360e-02  2.8441327985033071e-02  -2.6118550100784205e-03  -3.3078145712235732e-02  -6.2600015361289188e-02  -9.0890370886897498e-02  -1.1771677357069653e-01  -1.4288794735679131e-01  -1.6624394696520520e-01  -1.8765034638453776e-01  -2.0699590195697165e-01  -2.2419271210904143e-01  -2.3917765228491544e-01  -2.5191405939244976e-01  -2.6239281527306796e-01  -2.7063240746069778e-01  -2.7667775710574938e-01  -2.8059797532885100e-01  -2.8248329153831431e-01  -2.8244166021871842e-01  -2.8059551591002074e-01  -2.7707927390478237e-01  -2.7203799844237575e-01  -2.6562761585109296e-01  -2.5801691755514267e-01  -2.4939109150541783e-01  -2.3995824546365702e-01  -2.2995422810972352e-01  -2.1966408288468461e-01  -2.0940348381342344e-01  -1.9965575326794446e-01  -1.9075106678285692e-01  -1.8402376432390868e-01  -1.7840949293838196e-01  -1.8053107032593887e-01  -1.7297020871270000e-01  -2.0459122171602379e-01  -1.1357186409638034e-01  -3.5865907906283129e-01  -3.1879754186659653e-01  -3.4802555804222957e-01  -3.0465249446739989e-01  -2.6611972536234874e-01  -2.2524650679387914e-01  -1.8251828537168324e-01  -1.3852855336772055e-01  -9.3967796580443727e-02  -4.9662821259918874e-02  -6.4922952944397169e-03  3.4637293631505597e-02  7.2832778851902646e-02  1.0725228628459212e-01  1.3714433315720401e-01  1.6188481720605372e-01  1.8100870483281029e-01  1.9423330750192275e-01  2.0147055905953598e-01  2.0282686565406466e-01  1.9859030020431062e-01  1.8920640184782533e-01  1.7524500511505672e-01  1.5736158459330984e-01  1.3625701615255237e-01  1.1263967092312303e-01  8.7193072130179378e-02  6.0551364457004000e-02  3.3283545172755946e-02  5.8862079109861850e-03  -2.1216481615461403e-02  -4.7667507581553914e-02  -7.3168605690196550e-02  -9.7470830375320491e-02  -1.2036573337682634e-01  -1.4167826044892987e-01  -1.6126180024465017e-01  -1.7899534505870945e-01  -1.9478227376709925e-01  -2.0855016933460924e-01  -2.2025098670907148e-01  -2.2986110500403709e-01  -2.3738087149857001e-01  -2.4283355358324818e-01  -2.4626367924822185e-01  -2.4773501205745377e-01  -2.4732838389611636e-01  -2.4513979825472662e-01  -2.4127909134100348e-01  -2.3586955005293397e-01  -2.2904863159916056e-01  -2.2097013850954564e-01  -2.1180743379049938e-01  -2.0175961898853056e-01  -1.9105496751497839e-01  -1.7997351720733301e-01  -1.6881954769156246e-01  -1.5808094275538861e-01  -1.4802169159322193e-01  -1.4008381741147333e-01  -1.3265877091588008e-01  -1.3346270408104782e-01  -1.2081039646080299e-01  -1.5361999948984079e-01  -4.1441869051490797e-02  -3.1879754186659653e-01  -2.7554525356220677e-01  -3.6850753062670927e-01  -3.1183543219435933e-01  -2.7327918276463287e-01  -2.3174480325906649e-01  -1.8958096591719892e-01  -1.4689307079746580e-01  -1.0422303536102878e-01  -6.2210740718141637e-02  -2.1564445751630381e-02  1.6978896726604541e-02  5.2690298550050772e-02  8.4882552829354321e-02  1.1294332219463817e-01  1.3636529136149284e-01  1.5477154397095103e-01  1.6793398803516218e-01  1.7578308296889575e-01  1.7840783537914517e-01  1.7604600410366530e-01  1.6906547903849528e-01  1.5793873125594660e-01  1.4321292442252748e-01  1.2547860272329830e-01  1.0533981486364254e-01  8.3388083557661127e-02  6.0181918909055332e-02  3.6232694132837077e-02  1.1996849573034554e-02  -1.2126349956509628e-02  -3.5792771177342073e-02  -5.8708588088673221e-02  -8.0624146010864289e-02  -1.0132774838770871e-01  -1.2064022686661555e-01  -1.3841074614308346e-01  -1.5451392397330635e-01  -1.6884807408387961e-01  -1.8133422208452871e-01  -1.9191551210122840e-01  -2.0055666379096776e-01  -2.0724325294392698e-01  -2.1198070643200928e-01  -2.1479303187883189e-01  -2.1572139881245431e-01  -2.1482277299752953e-01  -2.1216882701914738e-01  -2.0784537822457591e-01  -2.0195255737325887e-01  -1.9460585592560617e-01  -1.8593829511413740e-01  -1.7610333815924403e-01  -1.6528066674144332e-01  -1.5367834704145186e-01  -1.4155670383442329e-01  -1.2919195865074110e-01  -1.1706044387355623e-01  -1.0533957230977657e-01  -9.5582367565439280e-02  -8.5594970866685827e-02  -8.4354478406833647e-02  -6.5747504628069095e-02  -9.9599832325367108e-02  3.3419648068825768e-02  -2.7554525356220677e-01  -2.3056437533303697e-01  -3.8945189426492482e-01  -3.1990845296790166e-01  -2.8199368083874204e-01  -2.4000820878393053e-01  -1.9844415915251395e-01  -1.5692932181626126e-01  -1.1592361601803405e-01  -7.5920033832701989e-02  -3.7486149028413303e-02  -1.2164773470788814e-03  3.2299491129619440e-02  6.2507755500362527e-02  8.8917581781208607e-02  1.1112583218467270e-01  1.2883673167303217e-01  1.4187572677531274e-01  1.5019643741049965e-01  1.5388013401691894e-01  1.5312791016929569e-01  1.4824632129014501e-01  1.3962796419416773e-01  1.2772881436446648e-01  1.1304442635273812e-01  9.6086955833114149e-02  7.7364745002965501e-02  5.7365669399091289e-02  3.6544933852814016e-02  1.5317383886972307e-02  -5.9460611985975576e-03  -2.6918633574093170e-02  -4.7315564642634894e-02  -6.6890544413765574e-02  -8.5431678040994941e-02  -1.0275758877131423e-01  -1.1871409651295069e-01  -1.3317161149032500e-01  -1.4602323697444697e-01  -1.5718339612945298e-01  -1.6658680343300145e-01  -1.7418754982361839e-01  -1.7995819057802057e-01  -1.8388872900468639e-01  -1.8598554414665197e-01  -1.8627029878722454e-01  -1.8477899476766599e-01  -1.8156129733150264e-01  -1.7668031688066249e-01  -1.7021297121802528e-01  -1.6225104516451755e-01  -1.5290317682077212e-01  -1.4229738877417636e-01  -1.3058651243764469e-01  -1.1794927194251968e-01  -1.0461561114586940e-01  -9.0822017987345210e-02  -7.7021368093230791e-02  -6.3291152712015269e-02  -5.1295301734942976e-02  -3.8231831766094779e-02  -3.4455292517589164e-02  -9.3709873103133279e-03  -4.4222381707964824e-02  1.0889856189797840e-01  -2.3056437533303697e-01  -1.8558349710386735e-01  -4.1029938765725943e-01  -3.2822179008124786e-01  -2.9154396796705445e-01  -2.4926988783108964e-01  -2.0830428359354586e-01  -1.6780932801085610e-01  -1.2821422110800229e-01  -8.9892853404916623e-02  -5.3299915157960870e-02  -1.8913156363917459e-02  1.2792860097213355e-02  4.1373382641377729e-02  6.6436577858519821e-02  8.7663299856974450e-02  1.0482272699694532e-01  1.1778311786166951e-01  1.2651705327528689e-01  1.3110093025755432e-01  1.3170884227657109e-01  1.2860152800847321e-01  1.2211140961505498e-01  1.1262512016356800e-01  1.0056498522971397e-01  8.6370962220887040e-02  7.0484275018359702e-02  5.3333714213665763e-02  3.5325126953779200e-02  1.6834259407333310e-02  -1.7972800704282690e-03  -2.0263416388361030e-02  -3.8293010739640879e-02  -5.5647961120747831e-02  -7.2120627173849108e-02  -8.7531095329301187e-02  -1.0172461219488035e-01  -1.1456938427230559e-01  -1.2595476703853467e-01  -1.3578981187619862e-01  -1.4400204517051454e-01  -1.5053639776955516e-01  -1.5535417306680072e-01  -1.5843204446568221e-01  -1.5976105427304635e-01  -1.5934570450613497e-01  -1.5720319047079381e-01  -1.5336291466568747e-01  -1.4786635836704018e-01  -1.4076745314270650e-01  -1.3213348917003623e-01  -1.2204685259173062e-01  -1.1060714187634900e-01  -9.7936254780175536e-02  -8.4178547925729930e-02  -6.9527426964467759e-02  -5.4173230649359735e-02  -3.8537204775088714e-02  -2.2591006609646046e-02  -8.1032915789702835e-03  8.3328544813069637e-03  1.4934680540444367e-02  4.6686013190886805e-02  1.0819955069288279e-02  1.8292538287104457e-01  -1.8558349710386735e-01  -1.4233120879947747e-01  -4.3072048207052960e-01  -3.3640230021211542e-01  -3.0144247583833433e-01  -2.5900342197273307e-01  -2.1864533546393894e-01  -1.7905510667177579e-01  -1.4067386947948837e-01  -1.0378245159392846e-01  -6.8747656259496331e-02  -3.5952036152023331e-02  -5.7752471608228263e-03  2.1428844234655971e-02  4.5351108407056057e-02  6.5743096381122731e-02  8.2429360397564128e-02  9.5315710811575541e-02  1.0439309373795176e-01  1.0973697614847160e-01  1.1150246479792833e-01  1.0991566157789331e-01  1.0526207709808777e-01  9.7873085801939722e-02  8.8111534851498655e-02  7.6357554243862508e-02  6.2995517959248334e-02  4.8402849067180148e-02  3.2941124234684468e-02  1.6949621803386924e-02  7.4122969080232294e-04  -1.5399588781892281e-02  -3.1217186895805871e-02  -4.6483954724590132e-02  -6.0998818829419141e-02  -7.4585397568719583e-02  -8.7090097510783809e-02  -9.8380316081355973e-02  -1.0834283762014812e-01  -1.1688241960870639e-01  -1.2392054604483335e-01  -1.2939428366224676e-01  -1.3325521725705317e-01  -1.3546842620852256e-01  -1.3601153409392419e-01  -1.3487384579515166e-01  -1.3205565423976739e-01  -1.2756777001711228e-01  -1.2143136972348763e-01  -1.1367823417704731e-01  -1.0435145004262929e-01  -9.3506824575921701e-02  -8.1214627012197893e-02  -6.7564288620715215e-02  -5.2663841153789359e-02  -3.6667304747884835e-02  -1.9716556723893882e-02  -2.1956129316639591e-03  1.6028135818010634e-02  3.3095338547377298e-02  5.2982476288218186e-02  6.2506938566977324e-02  1.0077932531206248e-01  6.3859251553141885e-02  2.5347640953193307e-01  -1.4233120879947747e-01  -1.0246967160324262e-01  -4.5041769924902364e-01  -3.4424213820911426e-01  -3.1133706737864042e-01  -2.6880348637182228e-01  -2.2904369940638869e-01  -1.9024906009783349e-01  -1.5290792554278440e-01  -1.1722745926572573e-01  -8.3506328122660317e-02  -5.2049536699521282e-02  -2.3158391155514123e-02  2.8889012947601843e-03  2.5852310121254440e-02  4.5542649824759501e-02  6.1831186227974344e-02  7.4655956124548103e-02  8.4024610357702298e-02  9.0013774583800429e-02  9.2765127429730199e-02  9.2478612444760466e-02  8.9403389342660983e-02  8.3827267916547765e-02  7.6065424546407884e-02  6.6449193078355853e-02  5.5315616688839921e-02  4.2998309718966080e-02  2.9819972049491043e-02  1.6086721071754136e-02  2.0842043516317603e-03  -1.1924674524292097e-02  -2.5700696657488968e-02  -3.9028250072812826e-02  -5.1714558349293491e-02  -6.3588493449870095e-02  -7.4499198319564516e-02  -8.4314667804671367e-02  -9.2920378817576185e-02  -1.0021800336320678e-01  -1.0612420740941947e-01  -1.1056952268398254e-01  -1.1349727589007368e-01  -1.1486257562008199e-01  -1.1463136451563399e-01  -1.1277957169457127e-01  -1.0929240394070984e-01  -1.0416383382318389e-01  -9.7396339489702208e-02  -8.9000976617659031e-02  -7.8997833468547177e-02  -6.7417139761837677e-02  -5.4300649157994346e-02  -3.9705949800475843e-02  -2.3705374191596778e-02  -6.4135877684902629e-03  1.2074629277199241e-02  3.1415685275769295e-02  5.1837121464233589e-02  7.1410992092345082e-02  9.4612625614473062e-02  1.0697606954007589e-01  1.5129732513531710e-01  1.1329290430240850e-01  3.1862592336039675e-01  -1.0246967160324262e-01  -6.7530742035006169e-02  -4.6905052698393712e-01  -3.5163151156785005e-01  -3.2095376599022363e-01  -2.7835044358449856e-01  -2.3916165522582356e-01  -2.0106213525104819e-01  -1.6461346487393214e-01  -1.2996254080005123e-01  -9.7355351542897872e-02  -6.7033370531321523e-02  -3.9232796609090452e-02  -1.4168323071100461e-02  7.9783516743502526e-03  2.7068368785456681e-02  4.3013047624709769e-02  5.5778628432001924e-02  6.5388286108457427e-02  7.1921457237035358e-02  7.5510644703612559e-02  7.6336042228056414e-02  7.4618425550596945e-02  7.0610871080506052e-02  6.4589888377740282e-02  5.6846550212048763e-02  4.7678135049821477e-02  3.73806893