<?xml version="1.0"?>
<VTKFile type="UnstructuredGrid"  version="0.1"  >
<UnstructuredGrid>
<Piece  NumberOfPoints="4225" NumberOfCells="8192">
<Points>
<DataArray  type="Float64"  NumberOfComponents="3"  format="ascii">-1 -1 0  -0.96875 -1 0  -0.9375 -1 0  -0.90625 -1 0  -0.875 -1 0  -0.84375 -1 0  -0.8125 -1 0  -0.78125 -1 0  -0.75 -1 0  -0.71875 -1 0  -0.6875 -1 0  -0.65625 -1 0  -0.625 -1 0  -0.59375 -1 0  -0.5625 -1 0  -0.53125 -1 0  -0.5 -1 0  -0.46875 -1 0  -0.4375 -1 0  -0.40625 -1 0  -0.375 -1 0  -0.34375 -1 0  -0.3125 -1 0  -0.28125 -1 0  -0.25 -1 0  -0.21875 -1 0  -0.1875 -1 0  -0.15625 -1 0  -0.125 -1 0  -0.09375 -1 0  -0.0625 -1 0  -0.03125 -1 0  0 -1 0  0.03125 -1 0  0.0625 -1 0  0.09375 -1 0  0.125 -1 0  0.15625 -1 0  0.1875 -1 0  0.21875 -1 0  0.25 -1 0  0.28125 -1 0  0.3125 -1 0  0.34375 -1 0  0.375 -1 0  0.40625 -1 0  0.4375 -1 0  0.46875 -1 0  0.5 -1 0  0.53125 -1 0  0.5625 -1 0  0.59375 -1 0  0.625 -1 0  0.65625 -1 0  0.6875 -1 0  0.71875 -1 0  0.75 -1 0  0.78125 -1 0  0.8125 -1 0  0.84375 -1 0  0.875 -1 0  0.90625 -1 0  0.9375 -1 0  0.96875 -1 0  1 -1 0  -1 -0.96875 0  -0.96875 -0.96875 0  -0.9375 -0.96875 0  -0.90625 -0.96875 0  -0.875 -0.96875 0  -0.84375 -0.96875 0  -0.8125 -0.96875 0  -0.78125 -0.96875 0  -0.75 -0.96875 0  -0.71875 -0.96875 0  -0.6875 -0.96875 0  -0.65625 -0.96875 0  -0.625 -0.96875 0  -0.59375 -0.96875 0  -0.5625 -0.96875 0  -0.53125 -0.96875 0  -0.5 -0.96875 0  -0.46875 -0.96875 0  -0.4375 -0.96875 0  -0.40625 -0.96875 0  -0.375 -0.96875 0  -0.34375 -0.96875 0  -0.3125 -0.96875 0  -0.28125 -0.96875 0  -0.25 -0.96875 0  -0.21875 -0.96875 0  -0.1875 -0.96875 0  -0.15625 -0.96875 0  -0.125 -0.96875 0  -0.09375 -0.96875 0  -0.0625 -0.96875 0  -0.03125 -0.96875 0  0 -0.96875 0  0.03125 -0.96875 0  0.0625 -0.96875 0  0.09375 -0.96875 0  0.125 -0.96875 0  0.15625 -0.96875 0  0.1875 -0.96875 0  0.21875 -0.96875 0  0.25 -0.96875 0  0.28125 -0.96875 0  0.3125 -0.96875 0  0.34375 -0.96875 0  0.375 -0.96875 0  0.40625 -0.96875 0  0.4375 -0.96875 0  0.46875 -0.96875 0  0.5 -0.96875 0  0.53125 -0.96875 0  0.5625 -0.96875 0  0.59375 -0.96875 0  0.625 -0.96875 0  0.65625 -0.96875 0  0.6875 -0.96875 0  0.71875 -0.96875 0  0.75 -0.96875 0  0.78125 -0.96875 0  0.8125 -0.96875 0  0.84375 -0.96875 0  0.875 -0.96875 0  0.90625 -0.96875 0  0.9375 -0.96875 0  0.96875 -0.96875 0  1 -0.96875 0  -1 -0.9375 0  -0.96875 -0.9375 0  -0.9375 -0.9375 0  -0.90625 -0.9375 0  -0.875 -0.9375 0  -0.84375 -0.9375 0  -0.8125 -0.9375 0  -0.78125 -0.9375 0  -0.75 -0.9375 0  -0.71875 -0.9375 0  -0.6875 -0.9375 0  -0.65625 -0.9375 0  -0.625 -0.9375 0  -0.59375 -0.9375 0  -0.5625 -0.9375 0  -0.53125 -0.9375 0  -0.5 -0.9375 0  -0.46875 -0.9375 0  -0.4375 -0.9375 0  -0.40625 -0.9375 0  -0.375 -0.9375 0  -0.34375 -0.9375 0  -0.3125 -0.9375 0  -0.28125 -0.9375 0  -0.25 -0.9375 0  -0.21875 -0.9375 0  -0.1875 -0.9375 0  -0.15625 -0.9375 0  -0.125 -0.9375 0  -0.09375 -0.9375 0  -0.0625 -0.9375 0  -0.03125 -0.9375 0  0 -0.9375 0  0.03125 -0.9375 0  0.0625 -0.9375 0  0.09375 -0.9375 0  0.125 -0.9375 0  0.15625 -0.9375 0  0.1875 -0.9375 0  0.21875 -0.9375 0  0.25 -0.9375 0  0.28125 -0.9375 0  0.3125 -0.9375 0  0.34375 -0.9375 0  0.375 -0.9375 0  0.40625 -0.9375 0  0.4375 -0.9375 0  0.46875 -0.9375 0  0.5 -0.9375 0  0.53125 -0.9375 0  0.5625 -0.9375 0  0.59375 -0.9375 0  0.625 -0.9375 0  0.65625 -0.9375 0  0.6875 -0.9375 0  0.71875 -0.9375 0  0.75 -0.9375 0  0.78125 -0.9375 0  0.8125 -0.9375 0  0.84375 -0.9375 0  0.875 -0.9375 0  0.90625 -0.9375 0  0.9375 -0.9375 0  0.96875 -0.9375 0  1 -0.9375 0  -1 -0.90625 0  -0.96875 -0.90625 0  -0.9375 -0.90625 0  -0.90625 -0.90625 0  -0.875 -0.90625 0  -0.84375 -0.90625 0  -0.8125 -0.90625 0  -0.78125 -0.90625 0  -0.75 -0.90625 0  -0.71875 -0.90625 0  -0.6875 -0.90625 0  -0.65625 -0.90625 0  -0.625 -0.90625 0  -0.59375 -0.90625 0  -0.5625 -0.90625 0  -0.53125 -0.90625 0  -0.5 -0.90625 0  -0.46875 -0.90625 0  -0.4375 -0.90625 0  -0.40625 -0.90625 0  -0.375 -0.90625 0  -0.34375 -0.90625 0  -0.3125 -0.90625 0  -0.28125 -0.90625 0  -0.25 -0.90625 0  -0.21875 -0.90625 0  -0.1875 -0.90625 0  -0.15625 -0.90625 0  -0.125 -0.90625 0  -0.09375 -0.90625 0  -0.0625 -0.90625 0  -0.03125 -0.90625 0  0 -0.90625 0  0.03125 -0.90625 0  0.0625 -0.90625 0  0.09375 -0.90625 0  0.125 -0.90625 0  0.15625 -0.90625 0  0.1875 -0.90625 0  0.21875 -0.90625 0  0.25 -0.90625 0  0.28125 -0.90625 0  0.3125 -0.90625 0  0.34375 -0.90625 0  0.375 -0.90625 0  0.40625 -0.90625 0  0.4375 -0.90625 0  0.46875 -0.90625 0  0.5 -0.90625 0  0.53125 -0.90625 0  0.5625 -0.90625 0  0.59375 -0.90625 0  0.625 -0.90625 0  0.65625 -0.90625 0  0.6875 -0.90625 0  0.71875 -0.90625 0  0.75 -0.90625 0  0.78125 -0.90625 0  0.8125 -0.90625 0  0.84375 -0.90625 0  0.875 -0.90625 0  0.90625 -0.90625 0  0.9375 -0.90625 0  0.96875 -0.90625 0  1 -0.90625 0  -1 -0.875 0  -0.96875 -0.875 0  -0.9375 -0.875 0  -0.90625 -0.875 0  -0.875 -0.875 0  -0.84375 -0.875 0  -0.8125 -0.875 0  -0.78125 -0.875 0  -0.75 -0.875 0  -0.71875 -0.875 0  -0.6875 -0.875 0  -0.65625 -0.875 0  -0.625 -0.875 0  -0.59375 -0.875 0  -0.5625 -0.875 0  -0.53125 -0.875 0  -0.5 -0.875 0  -0.46875 -0.875 0  -0.4375 -0.875 0  -0.40625 -0.875 0  -0.375 -0.875 0  -0.34375 -0.875 0  -0.3125 -0.875 0  -0.28125 -0.875 0  -0.25 -0.875 0  -0.21875 -0.875 0  -0.1875 -0.875 0  -0.15625 -0.875 0  -0.125 -0.875 0  -0.09375 -0.875 0  -0.0625 -0.875 0  -0.03125 -0.875 0  0 -0.875 0  0.03125 -0.875 0  0.0625 -0.875 0  0.09375 -0.875 0  0.125 -0.875 0  0.15625 -0.875 0  0.1875 -0.875 0  0.21875 -0.875 0  0.25 -0.875 0  0.28125 -0.875 0  0.3125 -0.875 0  0.34375 -0.875 0  0.375 -0.875 0  0.40625 -0.875 0  0.4375 -0.875 0  0.46875 -0.875 0  0.5 -0.875 0  0.53125 -0.875 0  0.5625 -0.875 0  0.59375 -0.875 0  0.625 -0.875 0  0.65625 -0.875 0  0.6875 -0.875 0  0.71875 -0.875 0  0.75 -0.875 0  0.78125 -0.875 0  0.8125 -0.875 0  0.84375 -0.875 0  0.875 -0.875 0  0.90625 -0.875 0  0.9375 -0.875 0  0.96875 -0.875 0  1 -0.875 0  -1 -0.84375 0  -0.96875 -0.84375 0  -0.9375 -0.84375 0  -0.90625 -0.84375 0  -0.875 -0.84375 0  -0.84375 -0.84375 0  -0.8125 -0.84375 0  -0.78125 -0.84375 0  -0.75 -0.84375 0  -0.71875 -0.84375 0  -0.6875 -0.84375 0  -0.65625 -0.84375 0  -0.625 -0.84375 0  -0.59375 -0.84375 0  -0.5625 -0.84375 0  -0.53125 -0.84375 0  -0.5 -0.84375 0  -0.46875 -0.84375 0  -0.4375 -0.84375 0  -0.40625 -0.84375 0  -0.375 -0.84375 0  -0.34375 -0.84375 0  -0.3125 -0.84375 0  -0.28125 -0.84375 0  -0.25 -0.84375 0  -0.21875 -0.84375 0  -0.1875 -0.84375 0  -0.15625 -0.84375 0  -0.125 -0.84375 0  -0.09375 -0.84375 0  -0.0625 -0.84375 0  -0.03125 -0.84375 0  0 -0.84375 0  0.03125 -0.84375 0  0.0625 -0.84375 0  0.09375 -0.84375 0  0.125 -0.84375 0  0.15625 -0.84375 0  0.1875 -0.84375 0  0.21875 -0.84375 0  0.25 -0.84375 0  0.28125 -0.84375 0  0.3125 -0.84375 0  0.34375 -0.84375 0  0.375 -0.84375 0  0.40625 -0.84375 0  0.4375 -0.84375 0  0.46875 -0.84375 0  0.5 -0.84375 0  0.53125 -0.84375 0  0.5625 -0.84375 0  0.59375 -0.84375 0  0.625 -0.84375 0  0.65625 -0.84375 0  0.6875 -0.84375 0  0.71875 -0.84375 0  0.75 -0.84375 0  0.78125 -0.84375 0  0.8125 -0.84375 0  0.84375 -0.84375 0  0.875 -0.84375 0  0.90625 -0.84375 0  0.9375 -0.84375 0  0.96875 -0.84375 0  1 -0.84375 0  -1 -0.8125 0  -0.96875 -0.8125 0  -0.9375 -0.8125 0  -0.90625 -0.8125 0  -0.875 -0.8125 0  -0.84375 -0.8125 0  -0.8125 -0.8125 0  -0.78125 -0.8125 0  -0.75 -0.8125 0  -0.71875 -0.8125 0  -0.6875 -0.8125 0  -0.65625 -0.8125 0  -0.625 -0.8125 0  -0.59375 -0.8125 0  -0.5625 -0.8125 0  -0.53125 -0.8125 0  -0.5 -0.8125 0  -0.46875 -0.8125 0  -0.4375 -0.8125 0  -0.40625 -0.8125 0  -0.375 -0.8125 0  -0.34375 -0.8125 0  -0.3125 -0.8125 0  -0.28125 -0.8125 0  -0.25 -0.8125 0  -0.21875 -0.8125 0  -0.1875 -0.8125 0  -0.15625 -0.8125 0  -0.125 -0.8125 0  -0.09375 -0.8125 0  -0.0625 -0.8125 0  -0.03125 -0.8125 0  0 -0.8125 0  0.03125 -0.8125 0  0.0625 -0.8125 0  0.09375 -0.8125 0  0.125 -0.8125 0  0.15625 -0.8125 0  0.1875 -0.8125 0  0.21875 -0.8125 0  0.25 -0.8125 0  0.28125 -0.8125 0  0.3125 -0.8125 0  0.34375 -0.8125 0  0.375 -0.8125 0  0.40625 -0.8125 0  0.4375 -0.8125 0  0.46875 -0.8125 0  0.5 -0.8125 0  0.53125 -0.8125 0  0.5625 -0.8125 0  0.59375 -0.8125 0  0.625 -0.8125 0  0.65625 -0.8125 0  0.6875 -0.8125 0  0.71875 -0.8125 0  0.75 -0.8125 0  0.78125 -0.8125 0  0.8125 -0.8125 0  0.84375 -0.8125 0  0.875 -0.8125 0  0.90625 -0.8125 0  0.9375 -0.8125 0  0.96875 -0.8125 0  1 -0.8125 0  -1 -0.78125 0  -0.96875 -0.78125 0  -0.9375 -0.78125 0  -0.90625 -0.78125 0  -0.875 -0.78125 0  -0.84375 -0.78125 0  -0.8125 -0.78125 0  -0.78125 -0.78125 0  -0.75 -0.78125 0  -0.71875 -0.78125 0  -0.6875 -0.78125 0  -0.65625 -0.78125 0  -0.625 -0.78125 0  -0.59375 -0.78125 0  -0.5625 -0.78125 0  -0.53125 -0.78125 0  -0.5 -0.78125 0  -0.46875 -0.78125 0  -0.4375 -0.78125 0  -0.40625 -0.78125 0  -0.375 -0.78125 0  -0.34375 -0.78125 0  -0.3125 -0.78125 0  -0.28125 -0.78125 0  -0.25 -0.78125 0  -0.21875 -0.78125 0  -0.1875 -0.78125 0  -0.15625 -0.78125 0  -0.125 -0.78125 0  -0.09375 -0.78125 0  -0.0625 -0.78125 0  -0.03125 -0.78125 0  0 -0.78125 0  0.03125 -0.78125 0  0.0625 -0.78125 0  0.09375 -0.78125 0  0.125 -0.78125 0  0.15625 -0.78125 0  0.1875 -0.78125 0  0.21875 -0.78125 0  0.25 -0.78125 0  0.28125 -0.78125 0  0.3125 -0.78125 0  0.34375 -0.78125 0  0.375 -0.78125 0  0.40625 -0.78125 0  0.4375 -0.78125 0  0.46875 -0.78125 0  0.5 -0.78125 0  0.53125 -0.78125 0  0.5625 -0.78125 0  0.59375 -0.78125 0  0.625 -0.78125 0  0.65625 -0.78125 0  0.6875 -0.78125 0  0.71875 -0.78125 0  0.75 -0.78125 0  0.78125 -0.78125 0  0.8125 -0.78125 0  0.84375 -0.78125 0  0.875 -0.78125 0  0.90625 -0.78125 0  0.9375 -0.78125 0  0.96875 -0.78125 0  1 -0.78125 0  -1 -0.75 0  -0.96875 -0.75 0  -0.9375 -0.75 0  -0.90625 -0.75 0  -0.875 -0.75 0  -0.84375 -0.75 0  -0.8125 -0.75 0  -0.78125 -0.75 0  -0.75 -0.75 0  -0.71875 -0.75 0  -0.6875 -0.75 0  -0.65625 -0.75 0  -0.625 -0.75 0  -0.59375 -0.75 0  -0.5625 -0.75 0  -0.53125 -0.75 0  -0.5 -0.75 0  -0.46875 -0.75 0  -0.4375 -0.75 0  -0.40625 -0.75
[...]
<PointData  Scalars="f_15"> 
<DataArray  type="Float64"  Name="f_15"  format="ascii">-4.1222058362062552e-01  -4.0826023215748203e-01  -3.9653137185378934e-01  -3.7748473623339796e-01  -3.5185227682172310e-01  -3.2061903465910635e-01  -2.8498528572605353e-01  -2.4632041501042484e-01  -2.0611029181031271e-01  -1.6590016861020057e-01  -1.2723529789457194e-01  -9.1601548961519091e-02  -6.0368306798902441e-02  -3.4735847387227500e-02  -1.5689211766836089e-02  -3.9603514631435114e-03  0.0000000000000000e+00  -3.9603514631435114e-03  -1.5689211766836113e-02  -3.4735847387227521e-02  -6.0368306798902482e-02  -9.1601548961519147e-02  -1.2723529789457202e-01  -1.6590016861020068e-01  -2.0611029181031276e-01  -2.4632041501042484e-01  -2.8498528572605353e-01  -3.2061903465910641e-01  -3.5185227682172310e-01  -3.7748473623339796e-01  -3.9653137185378939e-01  -4.0826023215748203e-01  -4.1222058362062552e-01  -4.0826023215748203e-01  -3.9653137185378939e-01  -3.7748473623339796e-01  -3.5185227682172310e-01  -3.2061903465910641e-01  -2.8498528572605353e-01  -2.4632041501042484e-01  -2.0611029181031276e-01  -1.6590016861020068e-01  -1.2723529789457202e-01  -9.1601548961519147e-02  -6.0368306798902482e-02  -3.4735847387227521e-02  -1.5689211766836113e-02  -3.9603514631435114e-03  0.0000000000000000e+00  -3.9603514631435114e-03  -1.5689211766836089e-02  -3.4735847387227500e-02  -6.0368306798902441e-02  -9.1601548961519091e-02  -1.2723529789457194e-01  -1.6590016861020057e-01  -2.0611029181031271e-01  -2.4632041501042484e-01  -2.8498528572605353e-01  -3.2061903465910635e-01  -3.5185227682172310e-01  -3.7748473623339796e-01  -3.9653137185378934e-01  -4.0826023215748203e-01  -4.1222058362062552e-01  -4.0826023215748203e-01  -3.8428078297066887e-01  -3.8188383254634267e-01  -3.7132431197350069e-01  -3.5317229725037652e-01  -3.2736738372515811e-01  -2.9488267363263992e-01  -2.5714031564418444e-01  -2.1576050175240241e-01  -1.7241193222448165e-01  -1.2872083585505112e-01  -8.6213081424819829e-02  -4.6275120076605822e-02  -1.0125918478724976e-02  2.1204125549965033e-02  4.6889252443252712e-02  6.6320322921634672e-02  7.9113193479082938e-02  8.5113775539895076e-02  8.4399976491856793e-02  7.7280655769322859e-02  6.4291581999274178e-02  4.6188068265115165e-02  2.3933168228578262e-02  -1.3214329434129814e-03  -2.8267947087102480e-02  -5.5498998076606930e-02  -8.1601519466324754e-02  -1.0529624823272681e-01  -1.2561070690494575e-01  -1.4204072706771739e-01  -1.5463135725536745e-01  -1.6392251587511791e-01  -1.7076370803455981e-01  -1.7606927809306813e-01  -1.8061021122041657e-01  -1.8490564438155752e-01  -1.8921811458658017e-01  -1.9361392677223913e-01  -1.9804097043137486e-01  -2.0239180666624079e-01  -2.0654141583417973e-01  -2.1036466292528044e-01  -2.1374428211718302e-01  -2.1657867654230839e-01  -2.1879378581549963e-01  -2.2035836618382323e-01  -2.2129871115215310e-01  -2.2170818667088316e-01  -2.2174877321833139e-01  -2.2164644041245987e-01  -2.2168826011066078e-01  -2.2223486110709789e-01  -2.2375836439046404e-01  -2.2690064596849560e-01  -2.3250574459049428e-01  -2.4156418042976677e-01  -2.5497205185615107e-01  -2.7317854356615118e-01  -2.9566043886735893e-01  -3.2098685371119673e-01  -3.4591569547247436e-01  -3.6981003900597564e-01  -3.8068434766743126e-01  -4.0826023215748203e-01  -3.9653137185378934e-01  -3.6947634569719229e-01  -3.7889354046051910e-01  -3.6962679252313485e-01  -3.5179564259141177e-01  -3.2572983835099134e-01  -2.9311174040764759e-01  -2.5568383259115302e-01  -2.1522735231271681e-01  -1.7347941748189452e-01  -1.3208529030355556e-01  -9.2564701097563637e-02  -5.6282585228408934e-02  -2.4420891874747871e-02  2.0481778154470558e-03  2.2385719410916240e-02  3.6104576316269198e-02  4.2981191238944221e-02  4.3059934847302937e-02  3.6649652387470991e-02  2.4312862800771395e-02  6.8487385459220897e-03  -1.4728655545220827e-02  -3.9216015698119770e-02  -6.5252273452783824e-02  -9.1363665405484726e-02  -1.1603770515635574e-01  -1.3784407230157159e-01  -1.5560710743739165e-01  -1.6859987598983445e-01  -1.7668952387629475e-01  -1.8035511961381290e-01  -1.8054672443515882e-01  -1.7843385950237090e-01  -1.7514270889314312e-01  -1.7156923466993512e-01  -1.6830108138124394e-01  -1.6563128239937852e-01  -1.6362534352900751e-01  -1.6220566972539813e-01  -1.6122919020462026e-01  -1.6054670083209410e-01  -1.6004176018035426e-01  -1.5965221026245016e-01  -1.5937875098717735e-01  -1.5928444850921089e-01  -1.5948792812294543e-01  -1.6015256843770051e-01  -1.6147413501430746e-01  -1.6367004126777909e-01  -1.6697426814464619e-01  -1.7164236431986812e-01  -1.7797052957359466e-01  -1.8632689143479561e-01  -1.9718625071288112e-01  -2.1112985766393652e-01  -2.2877155822224529e-01  -2.5050661928074902e-01  -2.7617619260017806e-01  -3.0454595062085599e-01  -3.3341746468404027e-01  -3.5906491728281320e-01  -3.7956446557327034e-01  -3.8543086691986495e-01  -3.9653137185378934e-01  -3.7748473623339796e-01  -3.4649208619872424e-01  -3.5882568498633893e-01  -3.5109099568923646e-01  -3.3597201728613485e-01  -3.1225218038746372e-01  -2.8166117320786127e-01  -2.4584910975022217e-01  -2.0658581401662618e-01  -1.6561459382859745e-01  -1.2458674366142825e-01  -8.5020345698851196e-02  -4.8272334211253001e-02  -1.5516110377890685e-02  1.2277992019046518e-02  3.4359603478422832e-02  5.0211923437371249e-02  5.9561411724132249e-02  6.2383292146450754e-02  5.8903025748267224e-02  4.9594230569457137e-02  3.5173487209069966e-02  1.6591487783241841e-02  -4.9828050267090029e-03  -2.8193583043722239e-02  -5.1560146333869912e-02  -7.3586363810896727e-02  -9.2923392072455410e-02  -1.0856240361987254e-01  -1.1999903494932126e-01  -1.2729892091595310e-01  -1.3102595337870987e-01  -1.3205797926691504e-01  -1.3136375071572629e-01  -1.2981710770945606e-01  -1.2808842974841717e-01  -1.2661292822438297e-01  -1.2561310481768043e-01  -1.2514915088724704e-01  -1.2517673687771380e-01  -1.2559934638343290e-01  -1.2630912776693889e-01  -1.2721527419236334e-01  -1.2826179571708171e-01  -1.2943749866297896e-01  -1.3078068854520683e-01  -1.3238041756546878e-01  -1.3437549779013430e-01  -1.3695236677077258e-01  -1.4034313407149540e-01  -1.4482591217254850e-01  -1.5072973164659234e-01  -1.5844647494125963e-01  -1.6844554624430574e-01  -1.8128153798547261e-01  -1.9754887362361340e-01  -2.1775585686076998e-01  -2.4201319724141285e-01  -2.6972965900767348e-01  -2.9915017431561186e-01  -3.2771723845352374e-01  -3.5163776202515651e-01  -3.6876415276171248e-01  -3.7264229967271006e-01  -3.7748473623339796e-01  -3.5185227682172310e-01  -3.2051234353077329e-01  -3.3362594717926691e-01  -3.2751239358966339e-01  -3.1408053018019738e-01  -2.9209425242988196e-01  -2.6326773603661180e-01  -2.2915114938310505e-01  -1.9150546277482716e-01  -1.5208374451115980e-01  -1.1255172327461395e-01  -7.4433625893494018e-02  -3.9079396745799709e-02  -7.6418153265519631e-03  1.8941918382500370e-02  3.9965854460885145e-02  5.4968019092419912e-02  6.3739376829113598e-02  6.6328354710005116e-02  6.3040577624684305e-02  5.4433623196929473e-02  4.1305987558812859e-02  2.4677562774699562e-02  5.7554179419517211e-03  -1.4125226758313741e-02  -3.3595693288537253e-02  -5.1387131949576677e-02  -6.6486113996278892e-02  -7.8272764799325184e-02  -8.6591333636330398e-02  -9.1720914413807669e-02  -9.4254793662656752e-02  -9.4934542934114990e-02  -9.4494921008875257e-02  -9.3556990701697609e-02  -9.2578280313616618e-02  -9.1848709725608671e-02  -9.1514375544439808e-02  -9.1613687832413651e-02  -9.2115450646894470e-02  -9.2953097806956805e-02  -9.4052509254155481e-02  -9.5352960124823458e-02  -9.6821914712316798e-02  -9.8464880872172977e-02  -1.0033151292942125e-01  -1.0251899547008370e-01  -1.0517358275217972e-01  -1.0849126730117757e-01  -1.1271877478697355e-01  -1.1815664014548545e-01  -1.2516574876345798e-01  -1.3417846095772223e-01  -1.4570614677016047e-01  -1.6033000081791043e-01  -1.7861712501271498e-01  -2.0095145456098787e-01  -2.2716767151847791e-01  -2.5631215425866583e-01  -2.8622109313594335e-01  -3.1419596985573256e-01  -3.3651494223052913e-01  -3.5117097888591947e-01  -3.5467006309284382e-01  -3.5185227682172310e-01  -3.2061903465910635e-01  -2.9453239185784408e-01  -3.0514467261831812e-01  -2.9897172061263233e-01  -2.8606033135673542e-01  -2.6539006767643347e-01  -2.3826881015141368e-01  -2.0602972080882628e-01  -1.7027391815514673e-01  -1.3264485664664127e-01  -9.4739033716679952e-02  -5.8034012908567786e-02  -2.3843664310066588e-02  6.7111893880556911e-03  3.2723241824000729e-02  5.3513959514039089e-02  6.8645041590780012e-02  7.7926316918613681e-02  8.1419784464318246e-02  7.9439189180505840e-02  7.2543847469199174e-02  6.1524028727581156e-02  4.7372900487412460e-02  3.1237719919865986e-02  1.4342800701024876e-02  -2.1178816085040447e-03  -1.7108071226129055e-02  -2.9870261710595088e-02  -4.0004770327686533e-02  -4.7479078908089160e-02  -5.2564425022352049e-02  -5.5724548801912716e-02  -5.7495218074553649e-02  -5.8386934526637221e-02  -5.8825321987796088e-02  -5.9127186017130878e-02  -5.9501869770504132e-02  -6.0066895945489120e-02  -6.0869711026098922e-02  -6.1910610772155858e-02  -6.3164145109045708e-02  -6.4597738045614084e-02  -6.6187045677516695e-02  -6.7928145065579620e-02  -6.9846889154877481e-02  -7.2005944305754147e-02  -7.4510028020589772e-02  -7.7509966087315613e-02  -8.1206308296018284e-02  -8.5853501462676382e-02  -9.1766059381457640e-02  -9.9327409931419405e-02  -1.0900136708990434e-01  -1.2133348818120863e-01  -1.3692558684461273e-01  -1.5631165036843062e-01  -1.7975271734842335e-01  -2.0682295353006735e-01  -2.3628107301581855e-01  -2.6565364530950258e-01  -2.9232399134062387e-01  -3.1266867347824595e-01  -3.2527046062778259e-01  -3.2819347091962991e-01  -3.2061903465910635e-01  -2.8498528572605353e-01  -2.7126926949364866e-01  -2.7686418778531185e-01  -2.6957032314020446e-01  -2.5620277807136504e-01  -2.3605442010726382e-01  -2.1011419561446573e-01  -1.7951264990294372e-01  -1.4563964633398210e-01  -1.0997705315712339e-01  -7.4002956095916755e-02  -3.9109016541540857e-02  -6.5440543442684181e-03  2.2624689710473177e-02  4.7537863640699216e-02  6.7562094611938114e-02  8.2302196541540557e-02  9.1608356404153532e-02  9.5578102786177246e-02  9.4551949177822628e-02  8.9100522995279791e-02  7.9999640890880297e-02  6.8188642370862584e-02  5.4707618932995077e-02  4.0612730905582164e-02  2.6876508969499290e-02  1.4289884365421650e-02  3.3891986531751875e-03  -5.5715941904985250e-03  -1.2597022232893381e-02  -1.7885858107994243e-02  -2.1749667328049224e-02  -2.4537345751103244e-02  -2.6579734975748455e-02  -2.8157523370307580e-02  -2.9488376032094733e-02  -3.0726997920417162e-02  -3.1972628798564398e-02  -3.3280309629809927e-02  -3.4673683103854776e-02  -3.6158036816153580e-02  -3.7732729996604118e-02  -3.9402510266862437e-02  -4.1187429488859860e-02  -4.3131336330682113e-02  -4.5309048188738356e-02  -4.7832508650019041e-02  -5.0856335669524785e-02  -5.4583460360593493e-02  -5.9271712354846955e-02  -6.5242711745834667e-02  -7.2893020507934864e-02  -8.2706398207540638e-02  -9.5249248808035786e-02  -1.1113027374782773e-01  -1.3083863906665144e-01  -1.5451845591800759e-01  -1.8151808502033981e-01  -2.1041704770297789e-01  -2.3854354727681634e-01  -2.6357867205939817e-01  -2.8189173319577354e-01  -2.9301799115176114e-01  -2.9513283744255792e-01  -2.8498528572605353e-01  -2.4632041501042484e-01  -2.5241094260968322e-01  -2.5117403727344667e-01  -2.4185179566209997e-01  -2.2709071806580375e-01  -2.0665427598803940e-01  -1.8128950478386596e-01  -1.5192407235855751e-01  -1.1972252251718665e-01  -8.5967401472829455e-02  -5.1969178236465595e-02  -1.8986131551137538e-02  1.1837268231918673e-02  3.9515982456857876e-02  6.3256553106766714e-02  8.2478956084493543e-02  9.6830395773609981e-02  1.0619211116850463e-01  1.1067909294993529e-01  1.1063145449621527e-01  1.0659516578016522e-01  9.9289158865520546e-02  8.9556207969372220e-02  7.8297291606383060e-02  6.6393874383084764e-02  5.4628569203791097e-02  4.3619116553211733e-02  3.3779999933925366e-02  2.5319043850022694e-02  1.8265712674568235e-02  1.2519020333547516e-02  7.9001420357639497e-03  4.1980973498536803e-03  1.2029501829694503e-03  -1.2737478103788066e-03  -3.3887671189552909e-03  -5.2642240367216210e-03  -6.9893641654097021e-03  -8.6254357329431305e-03  -1.0212538123312881e-02  -1.1777622166549952e-02  -1.3342983658993663e-02  -1.4934726877438209e-02  -1.6590837572264892e-02  -1.8368681686437696e-02  -2.0351927466922257e-02  -2.2657062088465237e-02  -2.5439877784384349e-02  -2.8902563329611296e-02  -3.3302245850546183e-02  -3.8962213469416550e-02  -4.6285119325938026e-02  -5.5765885319696534e-02  -6.7981342375507556e-02  -8.3537330185569081e-02  -1.0287398620882064e-01  -1.2603819146551362e-01  -1.5220236465241269e-01  -1.7988232029784582e-01  -2.0628705757045024e-01  -2.2956312380202964e-01  -2.4584381144205997e-01  -2.5602183346854596e-01  -2.5677555788381640e-01  -2.4632041501042484e-01  -2.0611029181031271e-01  -2.3847771813330929e-01  -2.2933649734900619e-01  -2.1752813010836983e-01  -2.0085333469526809e-01  -1.7959158952919033e-01  -1.5430547130070624e-01  -1.2576740821132618e-01  -9.4948709166297066e-02  -6.2937004595145229e-02  -3.0862485851822660e-02  1.7252966584299040e-04  2.9153493870531944e-02  5.5201201808670768e-02  7.7607239539309508e-02  9.5858620199034530e-02  1.0965286379127921e-01  1.1890419051220602e-01  1.2374060751106061e-01  1.2449087296435465e-01  1.2165980489018251e-01  1.1589070145287952e-01  1.0791505589563118e-01  9.8492576193186104e-02  8.8348044845335497e-02  7.8114409246615946e-02  6.8291737621808235e-02  5.9228427402519962e-02  5.1125253496867029e-02  4.4057088363152870e-02  3.8003979649525080e-02  3.2883517474318592e-02  2.8579054287052562e-02  2.4961408904960593e-02  2.1903973029752905e-02  1.9292161339869073e-02  1.7028380940943447e-02  1.5033481453821714e-02  1.3245473813788489e-02  1.1616148624886920e-02  1.0106197833970905e-02  8.6793635061191317e-03  7.2960884967606318e-03  5.9069926587474592e-03  4.4463840996352526e-03  2.8258192608896717e-03  9.2756975103396868e-04  -1.4023741609999175e-03  -4.3624048218007102e-03  -8.2053282889970151e-03  -1.3251481394969403e-02  -1.9903588434354691e-02  -2.8660205203144794e-02  -4.0100158591161304e-02  -5.4820779020855234e-02  -7.3217050037688511e-02  -9.5269623847989593e-02  -1.2003139799557991e-01  -1.4606009247553298e-01  -1.7048232532022317e-01  -1.9203478717677408e-01  -2.0631672085945457e-01  -2.1604065351839577e-01  -2.1479931527640034e-01  -2.0611029181031271e-01  -1.6590016861020057e-01  -2.2908258614145680e-01  -2.1160014083712497e-01  -1.9725389580177727e-01  -1.7849679869583882e-01  -1.5615835898721001e-01  -1.3065599949117437e-01  -1.0264843712561472e-01  -7.2950250660637359e-02  -4.2477481804765148e-02  -1.2188604965484903e-02  1.6974256991702717e-02  4.4138290222534723e-02  6.8544467831580955e-02  8.9582274264028247e-02  1.0681442719686547e-01  1.1999173655682516e-01  1.2905813615478301e-01  1.3414562182490092e-01  1.3555857388100534e-01  1.3374713037334193e-01  1.2927009908222359e-01  1.2274951329055875e-01  1.1482096958549079e-01  1.0608567685914219e-01  9.7070668024528892e-02  8.8202317694135418e-02  7.9795367163327316e-02  7.2056196002722686e-02  6.5096469659150724e-02  5.8952312717074448e-02  5.3604751160827559e-02  4.8998540069682607e-02  4.5057933321930664e-02  4.1698935764918413e-02  3.8838134950804890e-02  3.6398394204482258e-02  3.4311781272139380e-02  3.2520114908435482e-02  3.0973559809978308e-02  2.9627694012667797e-02  2.8439478488757677e-02  2.7362481244662371e-02  2.6341640865371219e-02  2.5307704917332651e-02  2.4171359132401388e-02  2.2816863650098832e-02  2.1094825410540068e-02  1.8813423647529148e-02  1.5727283943803658e-02  1.1522883448476030e-02  5.8023891554407287e-03  -1.9303792923695750e-03  -1.2250478539884951e-02  -2.5745683632454507e-02  -4.2776872952031274e-02  -6.3295248905370263e-02  -8.6287491756772555e-02  -1.1043652098746577e-01  -1.3278325084185100e-01  -1.5274685511906128e-01  -1.6506361110704618e-01  -1.7479419280600211e-01  -1.7086679640456767e-01  -1.6590016861020057e-01  -1.2723529789457194e-01  -2.2335600121435339e-01  -1.9758993098075373e-01  -1.8093654565533307e-01  -1.6018806072420899e-01  -1.3676762915231311e-01  -1.1095790508700125e-01  -8.3331350596975315e-02  -5.4577731876190083e-02  -2.5469766716662987e-02  3.1858400316852032e-03  3.0596376168197627e-02  5.6027678499215687e-02  7.8842743761964151e-02  9.8532666868487856e-02  1.1473888810587388e-01  1.2726616764047508e-01  1.3608592965418903e-01  1.4132975178089799e-01  1.4327304464967358e-01  1.4230952893380433e-01  1.3891806245992586e-01  1.3362456146559773e-01  1.2696286159555048e-01  1.1943888800316270e-01  1.1150208921982445e-01  1.0352670413602844e-01  9.5803489254418783e-02  8.8540693557789402e-02  8.1871868548719612e-02  7.5867754760598705e-02  7.0549797847549223e-02  6.5903496608312323e-02  6.1890435404310398e-02  5.8458376355589037e-02  5.5549128216145320e-02  5.3104141001871448e-02  5.1067918921326290e-02  4.9389456031647370e-02  4.8021965425129279e-02  4.6921215020384509e-02  4.6042772063845654e-02  4.5338429293778258e-02  4.4752000569055081e-02  4.4214584622947049e-02  4.3639251511295343e-02  4.2914949543419005e-02  4.1899217675258331e-02  4.0409002617776052e-02  3.8208756927460813e-02  3.4994743395467154e-02  3.0377799851327478e-02  2.3868483410478723e-02  1.4898653222612536e-02  2.8875227111709533e-03  -1.2506944772157330e-02  -3.1242294011645348e-02  -5.2282424662599386e-02  -7.4491451716087287e-02  -9.4793740432122006e-02  -1.1336159730083287e-01  -1.2374250785849306e-01  -1.3392002848230267e-01  -1.2660033493634895e-01  -1.2723529789457194e-01  -9.1601548961519091e-02  -2.2032631240963535e-01  -1.8669841617888433e-01  -1.6809410917379880e-01  -1.4556758025495792e-01  -1.2118588696484976e-01  -9.5096435123069326e-02  -6.7802862571593528e-02  -3.9891116535177976e-02  -1.2012991029525988e-02  1.5156297784362942e-02  4.0957422872340853e-02  6.4783662015438170e-02  8.6112875839750136e-02  1.0453321380051646e-01  1.1976141334515930e-01  1.3165292671180484e-01  1.4020344558083722e-01  1.4554176539364413e-01  1.4791442178299574e-01  1.4766316833102575e-01  1.4519713302202089e-01  1.4096220522962297e-01  1.3541066673844213e-01  1.2897405459412783e-01  1.2204166459253638e-01  1.1494608452723790e-01  1.0795596998945529e-01  1.0127526264734162e-01  9.5047405384876354e-02  8.9362890272774415e-02  8.4268572719544826e-02  7.9777473435990093e-02  7.5878114303471078e-02  7.2542753046727512e-02  6.9734129228250924e-02  6.7410547858936548e-02  6.5529272841399713e-02  6.4048327527140625e-02  6.2926866929565006e-02  6.2124331839412322e-02  6.1598594058395788e-02  6.1303276363384028e-02  6.1184369705609143e-02  6.1176183173090516e-02  6.1196541914669951e-02  6.1140990969326674e-02  6.0875559997154750e-02  6.0227357602856253e-02  5.8972155441897531e-02  5.6817888694997550e-02  5.3386495097648146e-02  4.8197920837294475e-02  4.0691851254483040e-02  3.0289929319920271e-02  1.6652968300930195e-02  -2.1209059064576440e-04  -1.9277295211056825e-02  -3.9617233995320793e-02  -5.7997608242673873e-02  -7.5396905112655871e-02  -8.3877375722216485e-02  -9.4931441215431331e-02  -8.3520914793223863e-02  -9.1601548961519091e-02  -6.0368306798902441e-02  -2.1914402400507002e-01  -1.7833096042196184e-01  -1.5813377033225354e-01  -1.3406725666716524e-01  -1.0887879265106293e-01  -8.2579433591179863e-02  -5.5615326118138901e-02  -2.8481628842019425e-02  -1.7253718346824959e-03  2.4092727733658205e-02  4.8430572870685890e-02  7.0794682416312496e-02  9.0765981147660421e-02  1.0802023110957251e-01  1.2234215722854308e-01  1.3363262994874348e-01  1.4190861440338570e-01  1.4729601546430707e-01  1.5001602672303335e-01  1.5036614718442734e-01  1.4869753828594637e-01  1.4539079937792027e-01  1.4083237230080534e-01  1.3539361280897788e-01  1.2941407642634509e-01  1.2318987775464707e-01  1.16967258788