<?xml version="1.0"?>
<VTKFile type="UnstructuredGrid"  version="0.1"  >
<UnstructuredGrid>
<Piece  NumberOfPoints="4225" NumberOfCells="8192">
<Points>
<DataArray  type="Float64"  NumberOfComponents="3"  format="ascii">-1 -1 0  -0.96875 -1 0  -0.9375 -1 0  -0.90625 -1 0  -0.875 -1 0  -0.84375 -1 0  -0.8125 -1 0  -0.78125 -1 0  -0.75 -1 0  -0.71875 -1 0  -0.6875 -1 0  -0.65625 -1 0  -0.625 -1 0  -0.59375 -1 0  -0.5625 -1 0  -0.53125 -1 0  -0.5 -1 0  -0.46875 -1 0  -0.4375 -1 0  -0.40625 -1 0  -0.375 -1 0  -0.34375 -1 0  -0.3125 -1 0  -0.28125 -1 0  -0.25 -1 0  -0.21875 -1 0  -0.1875 -1 0  -0.15625 -1 0  -0.125 -1 0  -0.09375 -1 0  -0.0625 -1 0  -0.03125 -1 0  0 -1 0  0.03125 -1 0  0.0625 -1 0  0.09375 -1 0  0.125 -1 0  0.15625 -1 0  0.1875 -1 0  0.21875 -1 0  0.25 -1 0  0.28125 -1 0  0.3125 -1 0  0.34375 -1 0  0.375 -1 0  0.40625 -1 0  0.4375 -1 0  0.46875 -1 0  0.5 -1 0  0.53125 -1 0  0.5625 -1 0  0.59375 -1 0  0.625 -1 0  0.65625 -1 0  0.6875 -1 0  0.71875 -1 0  0.75 -1 0  0.78125 -1 0  0.8125 -1 0  0.84375 -1 0  0.875 -1 0  0.90625 -1 0  0.9375 -1 0  0.96875 -1 0  1 -1 0  -1 -0.96875 0  -0.96875 -0.96875 0  -0.9375 -0.96875 0  -0.90625 -0.96875 0  -0.875 -0.96875 0  -0.84375 -0.96875 0  -0.8125 -0.96875 0  -0.78125 -0.96875 0  -0.75 -0.96875 0  -0.71875 -0.96875 0  -0.6875 -0.96875 0  -0.65625 -0.96875 0  -0.625 -0.96875 0  -0.59375 -0.96875 0  -0.5625 -0.96875 0  -0.53125 -0.96875 0  -0.5 -0.96875 0  -0.46875 -0.96875 0  -0.4375 -0.96875 0  -0.40625 -0.96875 0  -0.375 -0.96875 0  -0.34375 -0.96875 0  -0.3125 -0.96875 0  -0.28125 -0.96875 0  -0.25 -0.96875 0  -0.21875 -0.96875 0  -0.1875 -0.96875 0  -0.15625 -0.96875 0  -0.125 -0.96875 0  -0.09375 -0.96875 0  -0.0625 -0.96875 0  -0.03125 -0.96875 0  0 -0.96875 0  0.03125 -0.96875 0  0.0625 -0.96875 0  0.09375 -0.96875 0  0.125 -0.96875 0  0.15625 -0.96875 0  0.1875 -0.96875 0  0.21875 -0.96875 0  0.25 -0.96875 0  0.28125 -0.96875 0  0.3125 -0.96875 0  0.34375 -0.96875 0  0.375 -0.96875 0  0.40625 -0.96875 0  0.4375 -0.96875 0  0.46875 -0.96875 0  0.5 -0.96875 0  0.53125 -0.96875 0  0.5625 -0.96875 0  0.59375 -0.96875 0  0.625 -0.96875 0  0.65625 -0.96875 0  0.6875 -0.96875 0  0.71875 -0.96875 0  0.75 -0.96875 0  0.78125 -0.96875 0  0.8125 -0.96875 0  0.84375 -0.96875 0  0.875 -0.96875 0  0.90625 -0.96875 0  0.9375 -0.96875 0  0.96875 -0.96875 0  1 -0.96875 0  -1 -0.9375 0  -0.96875 -0.9375 0  -0.9375 -0.9375 0  -0.90625 -0.9375 0  -0.875 -0.9375 0  -0.84375 -0.9375 0  -0.8125 -0.9375 0  -0.78125 -0.9375 0  -0.75 -0.9375 0  -0.71875 -0.9375 0  -0.6875 -0.9375 0  -0.65625 -0.9375 0  -0.625 -0.9375 0  -0.59375 -0.9375 0  -0.5625 -0.9375 0  -0.53125 -0.9375 0  -0.5 -0.9375 0  -0.46875 -0.9375 0  -0.4375 -0.9375 0  -0.40625 -0.9375 0  -0.375 -0.9375 0  -0.34375 -0.9375 0  -0.3125 -0.9375 0  -0.28125 -0.9375 0  -0.25 -0.9375 0  -0.21875 -0.9375 0  -0.1875 -0.9375 0  -0.15625 -0.9375 0  -0.125 -0.9375 0  -0.09375 -0.9375 0  -0.0625 -0.9375 0  -0.03125 -0.9375 0  0 -0.9375 0  0.03125 -0.9375 0  0.0625 -0.9375 0  0.09375 -0.9375 0  0.125 -0.9375 0  0.15625 -0.9375 0  0.1875 -0.9375 0  0.21875 -0.9375 0  0.25 -0.9375 0  0.28125 -0.9375 0  0.3125 -0.9375 0  0.34375 -0.9375 0  0.375 -0.9375 0  0.40625 -0.9375 0  0.4375 -0.9375 0  0.46875 -0.9375 0  0.5 -0.9375 0  0.53125 -0.9375 0  0.5625 -0.9375 0  0.59375 -0.9375 0  0.625 -0.9375 0  0.65625 -0.9375 0  0.6875 -0.9375 0  0.71875 -0.9375 0  0.75 -0.9375 0  0.78125 -0.9375 0  0.8125 -0.9375 0  0.84375 -0.9375 0  0.875 -0.9375 0  0.90625 -0.9375 0  0.9375 -0.9375 0  0.96875 -0.9375 0  1 -0.9375 0  -1 -0.90625 0  -0.96875 -0.90625 0  -0.9375 -0.90625 0  -0.90625 -0.90625 0  -0.875 -0.90625 0  -0.84375 -0.90625 0  -0.8125 -0.90625 0  -0.78125 -0.90625 0  -0.75 -0.90625 0  -0.71875 -0.90625 0  -0.6875 -0.90625 0  -0.65625 -0.90625 0  -0.625 -0.90625 0  -0.59375 -0.90625 0  -0.5625 -0.90625 0  -0.53125 -0.90625 0  -0.5 -0.90625 0  -0.46875 -0.90625 0  -0.4375 -0.90625 0  -0.40625 -0.90625 0  -0.375 -0.90625 0  -0.34375 -0.90625 0  -0.3125 -0.90625 0  -0.28125 -0.90625 0  -0.25 -0.90625 0  -0.21875 -0.90625 0  -0.1875 -0.90625 0  -0.15625 -0.90625 0  -0.125 -0.90625 0  -0.09375 -0.90625 0  -0.0625 -0.90625 0  -0.03125 -0.90625 0  0 -0.90625 0  0.03125 -0.90625 0  0.0625 -0.90625 0  0.09375 -0.90625 0  0.125 -0.90625 0  0.15625 -0.90625 0  0.1875 -0.90625 0  0.21875 -0.90625 0  0.25 -0.90625 0  0.28125 -0.90625 0  0.3125 -0.90625 0  0.34375 -0.90625 0  0.375 -0.90625 0  0.40625 -0.90625 0  0.4375 -0.90625 0  0.46875 -0.90625 0  0.5 -0.90625 0  0.53125 -0.90625 0  0.5625 -0.90625 0  0.59375 -0.90625 0  0.625 -0.90625 0  0.65625 -0.90625 0  0.6875 -0.90625 0  0.71875 -0.90625 0  0.75 -0.90625 0  0.78125 -0.90625 0  0.8125 -0.90625 0  0.84375 -0.90625 0  0.875 -0.90625 0  0.90625 -0.90625 0  0.9375 -0.90625 0  0.96875 -0.90625 0  1 -0.90625 0  -1 -0.875 0  -0.96875 -0.875 0  -0.9375 -0.875 0  -0.90625 -0.875 0  -0.875 -0.875 0  -0.84375 -0.875 0  -0.8125 -0.875 0  -0.78125 -0.875 0  -0.75 -0.875 0  -0.71875 -0.875 0  -0.6875 -0.875 0  -0.65625 -0.875 0  -0.625 -0.875 0  -0.59375 -0.875 0  -0.5625 -0.875 0  -0.53125 -0.875 0  -0.5 -0.875 0  -0.46875 -0.875 0  -0.4375 -0.875 0  -0.40625 -0.875 0  -0.375 -0.875 0  -0.34375 -0.875 0  -0.3125 -0.875 0  -0.28125 -0.875 0  -0.25 -0.875 0  -0.21875 -0.875 0  -0.1875 -0.875 0  -0.15625 -0.875 0  -0.125 -0.875 0  -0.09375 -0.875 0  -0.0625 -0.875 0  -0.03125 -0.875 0  0 -0.875 0  0.03125 -0.875 0  0.0625 -0.875 0  0.09375 -0.875 0  0.125 -0.875 0  0.15625 -0.875 0  0.1875 -0.875 0  0.21875 -0.875 0  0.25 -0.875 0  0.28125 -0.875 0  0.3125 -0.875 0  0.34375 -0.875 0  0.375 -0.875 0  0.40625 -0.875 0  0.4375 -0.875 0  0.46875 -0.875 0  0.5 -0.875 0  0.53125 -0.875 0  0.5625 -0.875 0  0.59375 -0.875 0  0.625 -0.875 0  0.65625 -0.875 0  0.6875 -0.875 0  0.71875 -0.875 0  0.75 -0.875 0  0.78125 -0.875 0  0.8125 -0.875 0  0.84375 -0.875 0  0.875 -0.875 0  0.90625 -0.875 0  0.9375 -0.875 0  0.96875 -0.875 0  1 -0.875 0  -1 -0.84375 0  -0.96875 -0.84375 0  -0.9375 -0.84375 0  -0.90625 -0.84375 0  -0.875 -0.84375 0  -0.84375 -0.84375 0  -0.8125 -0.84375 0  -0.78125 -0.84375 0  -0.75 -0.84375 0  -0.71875 -0.84375 0  -0.6875 -0.84375 0  -0.65625 -0.84375 0  -0.625 -0.84375 0  -0.59375 -0.84375 0  -0.5625 -0.84375 0  -0.53125 -0.84375 0  -0.5 -0.84375 0  -0.46875 -0.84375 0  -0.4375 -0.84375 0  -0.40625 -0.84375 0  -0.375 -0.84375 0  -0.34375 -0.84375 0  -0.3125 -0.84375 0  -0.28125 -0.84375 0  -0.25 -0.84375 0  -0.21875 -0.84375 0  -0.1875 -0.84375 0  -0.15625 -0.84375 0  -0.125 -0.84375 0  -0.09375 -0.84375 0  -0.0625 -0.84375 0  -0.03125 -0.84375 0  0 -0.84375 0  0.03125 -0.84375 0  0.0625 -0.84375 0  0.09375 -0.84375 0  0.125 -0.84375 0  0.15625 -0.84375 0  0.1875 -0.84375 0  0.21875 -0.84375 0  0.25 -0.84375 0  0.28125 -0.84375 0  0.3125 -0.84375 0  0.34375 -0.84375 0  0.375 -0.84375 0  0.40625 -0.84375 0  0.4375 -0.84375 0  0.46875 -0.84375 0  0.5 -0.84375 0  0.53125 -0.84375 0  0.5625 -0.84375 0  0.59375 -0.84375 0  0.625 -0.84375 0  0.65625 -0.84375 0  0.6875 -0.84375 0  0.71875 -0.84375 0  0.75 -0.84375 0  0.78125 -0.84375 0  0.8125 -0.84375 0  0.84375 -0.84375 0  0.875 -0.84375 0  0.90625 -0.84375 0  0.9375 -0.84375 0  0.96875 -0.84375 0  1 -0.84375 0  -1 -0.8125 0  -0.96875 -0.8125 0  -0.9375 -0.8125 0  -0.90625 -0.8125 0  -0.875 -0.8125 0  -0.84375 -0.8125 0  -0.8125 -0.8125 0  -0.78125 -0.8125 0  -0.75 -0.8125 0  -0.71875 -0.8125 0  -0.6875 -0.8125 0  -0.65625 -0.8125 0  -0.625 -0.8125 0  -0.59375 -0.8125 0  -0.5625 -0.8125 0  -0.53125 -0.8125 0  -0.5 -0.8125 0  -0.46875 -0.8125 0  -0.4375 -0.8125 0  -0.40625 -0.8125 0  -0.375 -0.8125 0  -0.34375 -0.8125 0  -0.3125 -0.8125 0  -0.28125 -0.8125 0  -0.25 -0.8125 0  -0.21875 -0.8125 0  -0.1875 -0.8125 0  -0.15625 -0.8125 0  -0.125 -0.8125 0  -0.09375 -0.8125 0  -0.0625 -0.8125 0  -0.03125 -0.8125 0  0 -0.8125 0  0.03125 -0.8125 0  0.0625 -0.8125 0  0.09375 -0.8125 0  0.125 -0.8125 0  0.15625 -0.8125 0  0.1875 -0.8125 0  0.21875 -0.8125 0  0.25 -0.8125 0  0.28125 -0.8125 0  0.3125 -0.8125 0  0.34375 -0.8125 0  0.375 -0.8125 0  0.40625 -0.8125 0  0.4375 -0.8125 0  0.46875 -0.8125 0  0.5 -0.8125 0  0.53125 -0.8125 0  0.5625 -0.8125 0  0.59375 -0.8125 0  0.625 -0.8125 0  0.65625 -0.8125 0  0.6875 -0.8125 0  0.71875 -0.8125 0  0.75 -0.8125 0  0.78125 -0.8125 0  0.8125 -0.8125 0  0.84375 -0.8125 0  0.875 -0.8125 0  0.90625 -0.8125 0  0.9375 -0.8125 0  0.96875 -0.8125 0  1 -0.8125 0  -1 -0.78125 0  -0.96875 -0.78125 0  -0.9375 -0.78125 0  -0.90625 -0.78125 0  -0.875 -0.78125 0  -0.84375 -0.78125 0  -0.8125 -0.78125 0  -0.78125 -0.78125 0  -0.75 -0.78125 0  -0.71875 -0.78125 0  -0.6875 -0.78125 0  -0.65625 -0.78125 0  -0.625 -0.78125 0  -0.59375 -0.78125 0  -0.5625 -0.78125 0  -0.53125 -0.78125 0  -0.5 -0.78125 0  -0.46875 -0.78125 0  -0.4375 -0.78125 0  -0.40625 -0.78125 0  -0.375 -0.78125 0  -0.34375 -0.78125 0  -0.3125 -0.78125 0  -0.28125 -0.78125 0  -0.25 -0.78125 0  -0.21875 -0.78125 0  -0.1875 -0.78125 0  -0.15625 -0.78125 0  -0.125 -0.78125 0  -0.09375 -0.78125 0  -0.0625 -0.78125 0  -0.03125 -0.78125 0  0 -0.78125 0  0.03125 -0.78125 0  0.0625 -0.78125 0  0.09375 -0.78125 0  0.125 -0.78125 0  0.15625 -0.78125 0  0.1875 -0.78125 0  0.21875 -0.78125 0  0.25 -0.78125 0  0.28125 -0.78125 0  0.3125 -0.78125 0  0.34375 -0.78125 0  0.375 -0.78125 0  0.40625 -0.78125 0  0.4375 -0.78125 0  0.46875 -0.78125 0  0.5 -0.78125 0  0.53125 -0.78125 0  0.5625 -0.78125 0  0.59375 -0.78125 0  0.625 -0.78125 0  0.65625 -0.78125 0  0.6875 -0.78125 0  0.71875 -0.78125 0  0.75 -0.78125 0  0.78125 -0.78125 0  0.8125 -0.78125 0  0.84375 -0.78125 0  0.875 -0.78125 0  0.90625 -0.78125 0  0.9375 -0.78125 0  0.96875 -0.78125 0  1 -0.78125 0  -1 -0.75 0  -0.96875 -0.75 0  -0.9375 -0.75 0  -0.90625 -0.75 0  -0.875 -0.75 0  -0.84375 -0.75 0  -0.8125 -0.75 0  -0.78125 -0.75 0  -0.75 -0.75 0  -0.71875 -0.75 0  -0.6875 -0.75 0  -0.65625 -0.75 0  -0.625 -0.75 0  -0.59375 -0.75 0  -0.5625 -0.75 0  -0.53125 -0.75 0  -0.5 -0.75 0  -0.46875 -0.75 0  -0.4375 -0.75 0  -0.40625 -0.75
[...]
<PointData  Scalars="f_15"> 
<DataArray  type="Float64"  Name="f_15"  format="ascii">-4.9100187327827599e-01  -4.8628464162001073e-01  -4.7231422721238780e-01  -4.4962750524639378e-01  -4.1909631372432149e-01  -3.8189394921427428e-01  -3.3945007772104768e-01  -2.9339579342332855e-01  -2.4550093663913794e-01  -1.9760607985494741e-01  -1.5155179555722809e-01  -1.0910792406400152e-01  -7.1905559553954543e-02  -4.1374368031882144e-02  -1.8687646065888134e-02  -4.7172316582653308e-03  0.0000000000000000e+00  -4.7172316582653308e-03  -1.8687646065888158e-02  -4.1374368031882179e-02  -7.1905559553954598e-02  -1.0910792406400159e-01  -1.5155179555722825e-01  -1.9760607985494749e-01  -2.4550093663913800e-01  -2.9339579342332855e-01  -3.3945007772104768e-01  -3.8189394921427444e-01  -4.1909631372432149e-01  -4.4962750524639378e-01  -4.7231422721238792e-01  -4.8628464162001073e-01  -4.9100187327827599e-01  -4.8628464162001073e-01  -4.7231422721238792e-01  -4.4962750524639378e-01  -4.1909631372432149e-01  -3.8189394921427444e-01  -3.3945007772104768e-01  -2.9339579342332855e-01  -2.4550093663913800e-01  -1.9760607985494749e-01  -1.5155179555722825e-01  -1.0910792406400159e-01  -7.1905559553954598e-02  -4.1374368031882179e-02  -1.8687646065888158e-02  -4.7172316582653308e-03  0.0000000000000000e+00  -4.7172316582653308e-03  -1.8687646065888134e-02  -4.1374368031882144e-02  -7.1905559553954543e-02  -1.0910792406400152e-01  -1.5155179555722809e-01  -1.9760607985494741e-01  -2.4550093663913794e-01  -2.9339579342332855e-01  -3.3945007772104768e-01  -3.8189394921427428e-01  -4.1909631372432149e-01  -4.4962750524639378e-01  -4.7231422721238780e-01  -4.8628464162001073e-01  -4.9100187327827599e-01  -4.8628464162001073e-01  -4.0267461772851409e-01  -2.9902062362400200e-01  -1.7717755880408395e-01  -4.7284243479018863e-02  8.6063832242909158e-02  2.1974605447285578e-01  3.5113508433546248e-01  4.7775532168554413e-01  5.9719008339031154e-01  7.0708677635021544e-01  8.0520647931543043e-01  8.8949242279646745e-01  9.5814352430959659e-01  1.0096844631197113e+00  1.0430261270251917e+00  1.0575121613421705e+00  1.0529483419932526e+00  1.0296130704714892e+00  9.8824818775158507e-01  9.3003084507743905e-01  8.5652794934932086e-01  7.6963598555270452e-01  6.7150942791336909e-01  5.6448170499644756e-01  4.5098256731213276e-01  3.3345587346627015e-01  2.1428127523946960e-01  9.5702980912570471e-02  -2.0231911007680372e-02  -1.3172351763216200e-01  -2.3725636109786216e-01  -3.3562286519262324e-01  -4.2593289758492681e-01  -5.0760975057672286e-01  -5.8037340726286568e-01  -6.4421267532067683e-01  -6.9934811460486312e-01  -7.4618836435220748e-01  -7.8528253355815558e-01  -8.1727169280867396e-01  -8.4284206916905613e-01  -8.6268247387863395e-01  -8.7744759865924804e-01  -8.8772840446102752e-01  -8.9402977155559549e-01  -8.9675523316066075e-01  -8.9619781216498284e-01  -8.9253607294497106e-01  -8.8583422249402977e-01  -8.7604575389074746e-01  -8.6302036015030337e-01  -8.4651486741849313e-01  -8.2620944560702858e-01  -8.0173166668874518e-01  -7.7269010370131797e-01  -7.3873543226501859e-01  -6.9957632780566792e-01  -6.5537521421639255e-01  -6.0575081375053019e-01  -5.5445289384993335e-01  -4.9525420932358433e-01  -4.5936894238298154e-01  -3.8731828605715019e-01  -4.8628464162001073e-01  -4.7231422721238780e-01  -4.3774936762266142e-01  -3.5276759569915767e-01  -2.6497340723499935e-01  -1.7181162079791146e-01  -7.6191361836045454e-02  1.9696568803813069e-02  1.1382650708494256e-01  2.0432496965518276e-01  2.8942853890688214e-01  3.6748428981961506e-01  4.3697299001561696e-01  4.9654218723681387e-01  5.4504167748993215e-01  5.8155644074821167e-01  6.0543416005485684e-01  6.1630518940634771e-01  6.1409403155308495e-01  5.9902156607200452e-01  5.7159815027656202e-01  5.3260769897768001e-01  4.8308358008499730e-01  4.2427703788669091e-01  3.5761941556127669e-01  2.8467926849927094e-01  2.0711591471496243e-01  1.2663077959113955e-01  4.4918203452158599e-02  -3.6382747315487442e-02  -1.1573377880569252e-01  -1.9173862788479337e-01  -2.6317860741700605e-01  -3.2904114448496474e-01  -3.8854034410721516e-01  -4.4112884669785207e-01  -4.8650073877733335e-01  -5.2458547493071450e-01  -5.5553333285829976e-01  -5.7969299183565126e-01  -5.9758234460191961e-01  -6.0985355952186682e-01  -6.1725390267094493e-01  -6.2058363458193200e-01  -6.2065275133504838e-01  -6.1823811776402460e-01  -6.1404298292343773e-01  -6.0866056823708392e-01  -6.0254375607741661e-01  -5.9598243497679160e-01  -5.8909023476497213e-01  -5.8180172242898420e-01  -5.7388114656945177e-01  -5.6494314074718466e-01  -5.5448594336748913e-01  -5.4193748440390255e-01  -5.2671383744902733e-01  -5.0830545146781247e-01  -4.8631037821058382e-01  -4.6087325158447290e-01  -4.3152040247520562e-01  -4.0262947272723898e-01  -3.6518729361825220e-01  -3.6042287355461128e-01  -2.7814271000751761e-01  -4.7231422721238780e-01  -4.4962750524639378e-01  -4.8529788981524580e-01  -3.7658161515860922e-01  -2.8672187218719836e-01  -1.9073791193450795e-01  -9.4235787773078949e-02  1.7110457523160120e-03  9.5416705429997403e-02  1.8529935829283975e-01  2.6980984154007343e-01  3.4745907513088564e-01  4.1684932891585769e-01  4.7671227968284607e-01  5.2594915559545874e-01  5.6366918781188624e-01  5.8922314021073863e-01  6.0222945535738448e-01  6.0259106060864043e-01  5.9050167551682498e-01  5.6644104173318299e-01  5.3115929210569468e-01  4.8565123509067820e-01  4.3112198588033629e-01  3.6894571766156448e-01  3.0061965323124751e-01  2.2771543237115846e-01  1.5183002350265987e-01  7.4538118924614580e-02  -2.6522601102117096e-03  -7.8339526472182924e-02  -1.5126252264973888e-01  -2.2032789656079879e-01  -2.8463028393597689e-01  -3.4346494531766070e-01  -3.9633277043696163e-01  -4.4293776708476340e-01  -4.8317742102932754e-01  -5.1712649481198603e-01  -5.4501512264658047e-01  -5.6720218839800451e-01  -5.8414522639038990e-01  -5.9636810864355205e-01  -6.0442795606590782e-01  -6.0888262078673117e-01  -6.1026012271218111e-01  -6.0903122620320571e-01  -6.0558630743917286e-01  -6.0021738798669966e-01  -5.9310616543263273e-01  -5.8431859781230810e-01  -5.7380663012652711e-01  -5.6141748100254496e-01  -5.4691104250882605e-01  -5.2998598067248137e-01  -5.1031563649670098e-01  -4.8759327808980885e-01  -4.6160473882910119e-01  -4.3223083748153490e-01  -3.9992081893804571e-01  -3.6419276935760725e-01  -3.3022367787688800e-01  -2.8546171167932771e-01  -2.8189111823956553e-01  -1.6025622506207343e-01  -4.4962750524639378e-01  -4.1909631372432149e-01  -5.3804211823991466e-01  -4.0810319952176205e-01  -3.2528443629721326e-01  -2.3428511057464435e-01  -1.4541523120761976e-01  -5.7925503551890786e-02  2.6760675225668072e-02  1.0747540922883933e-01  1.8300517306909159e-01  2.5217754391945629e-01  3.1389416578839791e-01  3.6716589465914501e-01  4.1114550882106482e-01  4.4515689299148387e-01  4.6871919804276052e-01  4.8156481354880459e-01  4.8365021884538073e-01  4.7515927145290693e-01  4.5649874494121073e-01  4.2828643493348700e-01  3.9133231751041730e-01  3.4661366170429886e-01  2.9524508686856721e-01  2.3844483506671404e-01  1.7749852648528464e-01  1.1372180604505022e-01  4.8423207220626541e-02  -1.7131412300975434e-02  -8.1751677337592560e-02  -1.4435163397672329e-01  -2.0397391765961712e-01  -2.5980842566036683e-01  -3.1120499616184732e-01  -3.5767984574709777e-01  -3.9891572177887435e-01  -4.3475601674495146e-01  -4.6519325464985345e-01  -4.9035262155264875e-01  -5.1047131890500808e-01  -5.2587472254272571e-01  -5.3695035729048246e-01  -5.4412082840903075e-01  -5.4781679511421033e-01  -5.4845115769609820e-01  -5.4639549642216834e-01  -5.4195982783636643e-01  -5.3537658803099397e-01  -5.2678972834219617e-01  -5.1624963306036398e-01  -5.0371452243319059e-01  -4.8905883763360103e-01  -4.7208911487266658e-01  -4.5256774855393722e-01  -4.3024531686013584e-01  -4.0490004230613030e-01  -3.7640299012313777e-01  -3.4469449107240929e-01  -3.1029003586618392e-01  -2.7245264908854372e-01  -2.3691343569813908e-01  -1.8740823082354058e-01  -1.8704117391479166e-01  -2.9709860142022738e-02  -4.1909631372432149e-01  -3.8189394921427428e-01  -5.9003775561505223e-01  -4.3904374665880652e-01  -3.6174823007123069e-01  -2.7252790862077297e-01  -1.8782380901748216e-01  -1.0503857760537580e-01  -2.5534603192679785e-02  4.9889735228602655e-02  1.2027351872098660e-01  1.8467529233023355e-01  2.4219852886817245e-01  2.9202882607166947e-01  3.3346536117757658e-01  3.6594799954737872e-01  3.8907956718492392e-01  4.0264246544049925e-01  4.0660910376511278e-01  4.0114562575315044e-01  3.8660892058545770e-01  3.6353696258468360e-01  3.3263307320825675e-01  2.9474473579636190e-01  2.5083803592839421e-01  2.0196874729608472e-01  1.4925136311587558e-01  9.3827236514314363e-02  3.6833106874202035e-02  -2.0628923393711512e-02  -7.7518902370005763e-02  -1.3288319145168637e-01  -1.8587455094484565e-01  -2.3576761064130972e-01  -2.8196937427061625e-01  -3.2402455254059859e-01  -3.6161577579111176e-01  -3.9455882230565525e-01  -4.2279328497470658e-01  -4.4636913482366564e-01  -4.6542992323225579e-01  -4.8019332190553304e-01  -4.9092994998065720e-01  -4.9794132366237348e-01  -5.0153797319828353e-01  -5.0201856322816818e-01  -4.9965101895796443e-01  -4.9465640517102977e-01  -4.8719642402710323e-01  -4.7736510247575442e-01  -4.6518533618419522e-01  -4.5061066721211740e-01  -4.3353277715935185e-01  -4.1379488879929777e-01  -3.9121141693516454e-01  -3.6559409120057068e-01  -3.3678248063093924e-01  -3.0469842321250146e-01  -2.6929390958882776e-01  -2.3109061593155678e-01  -1.8903120713282867e-01  -1.4938099543158301e-01  -9.2232364275280462e-02  -9.2194402520355018e-02  1.0205156007081773e-01  -3.8189394921427428e-01  -3.3945007772104768e-01  -6.3872622636273235e-01  -4.6776105820669045e-01  -3.9694713965273726e-01  -3.0995177525056483e-01  -2.2955413601167068e-01  -1.5139164802969127e-01  -7.6897293659277444e-02  -6.5564026679670023e-03  5.8876238276134765e-02  1.1866327395164525e-01  1.7209094154874149e-01  2.1850805479558677e-01  2.5735474886093435e-01  2.8818663249129983e-01  3.1069397015907968e-01  3.2471580274714740e-01  3.3024861724847460e-01  3.2744952574515918e-01  3.1663383025509029e-01  2.9826730817745861e-01  2.7295349565983312e-01  2.4141667633038133e-01  2.0448120975161543e-01  1.6304816910029238e-01  1.1807012990270732e-01  7.0525164557558057e-02  2.1390937856382568e-02  -2.8380118805580990e-02  -7.7883752076552210e-02  -1.2628417994724547e-01  -1.7283112365831446e-01  -2.1687310158322581e-01  -2.5786663711143282e-01  -2.9538123797021432e-01  -3.2910008913219718e-01  -3.5881666067529999e-01  -3.8442745390609673e-01  -4.0592138924369592e-01  -4.2336629431415856e-01  -4.3689323064796415e-01  -4.4667927080792319e-01  -4.5292959136992295e-01  -4.5585955505465459e-01  -4.5567767513340357e-01  -4.5257009473014143e-01  -4.4668740411266727e-01  -4.3813430946538029e-01  -4.2696283935684642e-01  -4.1316942799499040e-01  -3.9669636906641581e-01  -3.7743778148660673e-01  -3.5525036580761149e-01  -3.2996885724765190e-01  -3.0142632598027402e-01  -2.6947637214838832e-01  -2.3403819621690136e-01  -1.9501927124621965e-01  -1.5289425906017040e-01  -1.0625129077754551e-01  -6.1901026270221107e-02  3.6112443177937483e-03  4.0526604907918451e-03  2.3471231544231611e-01  -3.3945007772104768e-01  -2.9339579342332855e-01  -6.8299293060541111e-01  -4.9316619852835342e-01  -4.2951945758103210e-01  -3.4471856191737410e-01  -2.6820828203967806e-01  -1.9400574207880317e-01  -1.2371877217125336e-01  -5.7587374864177469e-02  3.7859824741891101e-03  5.9824836166356248e-02  1.0996046362000306e-01  1.5367169580087972e-01  1.9051049766825412e-01  2.2012347909211744e-01  2.4226882323830543e-01  2.5682860949942199e-01  2.6381647434444860e-01  2.6338054473854283e-01  2.5580171211040292e-01  2.4148742933153211e-01  2.2096138494908280e-01  1.9484953528831486e-01  1.6386311382407404e-01  1.2877932289056956e-01  9.0420486525066637e-02  4.9632465242702872e-02  7.2631318019063754e-03  -3.5858325064647936e-02  -7.8940568012746931e-02  -1.2124712826143288e-01  -1.6211075712803666e-01  -2.0094470510870388e-01  -2.3725065304241455e-01  -2.7062314362926743e-01  -3.0075049874330162e-01  -3.2741232889190464e-01  -3.5047387674841096e-01  -3.6987752985957900e-01  -3.8563196029411873e-01  -3.9779939998985242e-01  -4.0648165499214389e-01  -4.1180546813826746e-01  -4.1390788991609673e-01  -4.1292228146915122e-01  -4.0896559113026981e-01  -4.0212744995173227e-01  -3.9246163836753084e-01  -3.7998032912927310e-01  -3.6465150278690261e-01  -3.4639975776698373e-01  -3.2511069595964925e-01  -3.0063887182293170e-01  -2.7281920931600501e-01  -2.4148167804056150e-01  -2.0646602587851706e-01  -1.6765890129893449e-01  -1.2489523439431681e-01  -7.8579811821135756e-02  -2.6947470130136861e-02  2.2635110819308253e-02  9.7043479833769139e-02  9.8582847130013571e-02  3.6481424551395136e-01  -2.9339579342332855e-01  -2.4550093663913794e-01  -7.2245703569099429e-01  -5.1486892883528868e-01  -4.5895320110150284e-01  -3.7649159977422375e-01  -3.0375964693349400e-01  -2.3320496292771922e-01  -1.6668606737584871e-01  -1.0425637018308746e-01  -4.6412844934244524e-02  6.3917804639550303e-03  5.3703605874549941e-02  9.5106825660989838e-02  1.3024530549011321e-01  1.5884126530798104e-01  1.8070985839545872e-01  1.9576971723889988e-01  2.0404954647475987e-01  2.0569069455893954e-01  2.0094587870532946e-01  1.9017415285806208e-01  1.7383250722893825e-01  1.5246441317314766e-01  1.2668589915148956e-01  9.7169649379705778e-02  6.4627830469957348e-02  2.9794233228760632e-02  -6.5935569423041136e-03  -4.3811383456270919e-02  -8.1164511104122164e-02  -1.1800189730171019e-01  -1.5372829229278487e-01  -1.8781382942530400e-01  -2.1980087301067466e-01  -2.4930797182121575e-01  -2.7603092532471696e-01  -2.9974100920264213e-01  -3.2028058746884980e-01  -3.3755634604557400e-01  -3.5153055704813085e-01  -3.6221074873351933e-01  -3.6963831627670674e-01  -3.7387652647653336e-01  -3.7499850757419062e-01  -3.7307568222326470e-01  -3.6816720791787799e-01  -3.6031083794348640e-01  -3.4951566098614451e-01  -3.3575701725333734e-01  -3.1897389706642204e-01  -2.9906894189433059e-01  -2.7591115107698461e-01  -2.4934115819335204e-01  -2.1917889587700179e-01  -1.8523333859875180e-01  -1.4731089797813685e-01  -1.0524634848076124e-01  -5.8786887394268933e-02  -8.2563099599877454e-03  4.8447939996019838e-02  1.0341578439041568e-01  1.8677418187479775e-01  1.8979048590205147e-01  4.9013655680658652e-01  -2.4550093663913794e-01  -1.9760607985494741e-01  -7.5714626956429143e-01  -5.3292748862617834e-01  -4.8507922562073136e-01  -4.0506047960792757e-01  -3.3600079668080751e-01  -2.6882284599122203e-01  -2.0569473407165556e-01  -1.4652823035542489e-01  -9.1753336157316942e-02  -4.1731179230463891e-02  3.1722461079038747e-03  4.2624015427296505e-02  7.6341436697689183e-02  1.0410775523079879e-01  1.2578433388858523e-01  1.4131952827368166e-01  1.5075419097757212e-01  1.5422390422666762e-01  1.5195794343445634e-01  1.4427521333772578e-01  1.3157732318688017e-01  1.1433920791358954e-01  9.3097624515398783e-02  6.8438066261291675e-02  4.0980540461807956e-02  1.1364803975104532e-02  -1.9764463063359817e-02  -5.1771975201591346e-02  -8.4045207014928000e-02  -1.1600634969946690e-01  -1.4712250855001263e-01  -1.7691384720438691e-01  -2.0495946848252211e-01  -2.3090093145342419e-01  -2.5444335374219557e-01  -2.7535419165020314e-01  -2.9345981105304747e-01  -3.0864011121632590e-01  -3.2082144955186065e-01  -3.2996826175546040e-01  -3.3607371653658485e-01  -3.3914987745897207e-01  -3.3921773694950824e-01  -3.3629761223225635e-01  -3.3040024758142184e-01  -3.2151904702871009e-01  -3.0962370677126738e-01  -2.9465555250180975e-01  -2.7652471532577028e-01  -2.5510928271349753e-01  -2.3025634964668987e-01  -2.0178488136075051e-01  -1.6949004522564748e-01  -1.3314876993372451e-01  -9.2522952733410269e-02  -4.7385599757878545e-02  2.6088156930326721e-03  5.7221310778394610e-02  1.1886507159259199e-01  1.7912669233112768e-01  2.7114541742719039e-01  2.7586171242435059e-01  6.0821310608214729e-01  -1.9760607985494741e-01  -1.5155179555722809e-01  -7.8730708371584024e-01  -5.4768267709043006e-01  -5.0797622219397520e-01  -4.3043519004256781e-01  -3.6492996873454392e-01  -3.0090068002427295e-01  -2.4085811694891324e-01  -1.8460409015575407e-01  -1.3253089252206679e-01  -8.4933536809935317e-02  -4.2112005532255734e-02  -4.3348068505649371e-03  2.8173635931212925e-02  5.5245612381734852e-02  7.6779970254985702e-02  9.2749274734258633e-02  1.0320428404901920e-01  1.0827570557618509e-01  1.0817333237083425e-01  1.0318264309734676e-01  9.3659104575114269e-02  8.0020402919044969e-02  6.2736972030575600e-02  4.2321156670319181e-02  1.9315466265437176e-02  -5.7196821779261315e-03  -3.2218256471011238e-02  -5.9620543227400270e-02  -8.7384296913410278e-02  -1.1499476427248599e-01  -1.4197326856897297e-01  -1.6788411405487047e-01  -1.9233963711905536e-01  -2.1500329547933206e-01  -2.3559077835860745e-01  -2.5386916753705224e-01  -2.6965428143590936e-01  -2.8280636078557136e-01  -2.9322435389136414e-01  -3.0083905227353058e-01  -3.0560542428080889e-01  -3.0749444627611328e-01  -3.0648481728173299e-01  -3.0255485327034393e-01  -2.9567492432510101e-01  -2.8580068549607462e-01  -2.7286738027374313e-01  -2.5678536591153067e-01  -2.3743700803300660e-01  -2.1467493811611349e-01  -1.8832164018254102e-01  -1.5817014224700013e-01  -1.2398554587158167e-01  -8.5507085259899307e-02  -4.2447225545215808e-02  5.4859898233955220e-03  5.8728911979865385e-02  1.1712738501100739e-01  1.8336936824639719e-01  2.4860582780535651e-01  3.4866359655446988e-01  3.5516592139568570e-01  7.1671214119999527e-01  -1.5155179555722809e-01  -1.0910792406400152e-01  -8.1328518740973055e-01  -5.5963901190915966e-01  -5.2787427409398013e-01  -4.5276165916871997e-01  -3.9064738263260673e-01  -3.2954184034429485e-01  -2.7231149109892278e-01  -2.1866967249468044e-01  -1.6899123107017830e-01  -1.2352391101894364e-01  -8.2518525093067133e-02  -4.6193753853240677e-02  -1.4727956586858814e-02  1.1750500291859310e-02  3.3170799411575157e-02  4.9525210408818243e-02  6.0872518010895597e-02  6.7339302404793924e-02  6.9119097082022934e-02  6.6469511820101218e-02  5.9707469565018309e-02  4.9202769228239213e-02  3.5370229194680421e-02  1.8660725227450121e-02  -4.4855161699239483e-04  -2.1464249453348641e-02  -4.3887079899862208e-02  -6.7221744471316958e-02  -9.0986247229418879e-02  -1.1472028655264094e-01  -1.3799247921898239e-01  -1.6040620504871886e-01  -1.8160392838999823e-01  -2.0126990177845691e-01  -2.1913122776298000e-01  -2.3495730496458503e-01  -2.4855775091594737e-01  -2.5977894036163746e-01  -2.6849934492343430e-01  -2.7462390135710757e-01  -2.7807765460957162e-01  -2.7879895372369040e-01  -2.7673246345623803e-01  -2.7182227389000030e-01  -2.6400534661324893e-01  -2.5320553027104148e-01  -2.3932831297752086e-01  -2.2225644729285843e-01  -2.0184650003654539e-01  -1.7792631788651081e-01  -1.5029329660322396e-01  -1.1871326099114345e-01  -8.2919642488943818e-02  -4.2612728633493108e-02  2.5444749209116366e-03  5.2907008190076335e-02  1.0899508054650427e-01  1.7073678341096127e-01  2.4105034918788348e-01  3.1074407241608037e-01  4.1791514031155014e-01  4.2618094428286685e-01  8.1340068192336501e-01  -1.0910792406400152e-01  -7.1905559553954543e-02  -8.3544653985911144e-01  -5.6937299198694036e-01  -5.4507952251220759e-01  -4.7226330936353333e-01  -4.1331796760452955e-01  -3.5489808350367413e-01  -3.0022067796726143e-01  -2.4892383515641603e-01  -2.0137715783972432e-01  -1.5779387595323244e-01  -1.1838766755725244e-01  -8.3338203935010180e-02  -5.2787059417940138e-02  -2.6830752628670629e-02  -5.5153153829784942e-03  1.1167730226283477e-02  2.3283805533001349e-02  3.0956068525514024e-02  3.4364524231559675e-02  3.3743529372073831e-02  2.9377769432018076e-02  2.1596889066652494e-02  1.0768962276752746e-02  -2.7069419608439370e-03  -1.8408837368682759e-02  -3.5900251985511