<?xml version="1.0"?>
<VTKFile type="UnstructuredGrid"  version="0.1"  >
<UnstructuredGrid>
<Piece  NumberOfPoints="4225" NumberOfCells="8192">
<Points>
<DataArray  type="Float64"  NumberOfComponents="3"  format="ascii">-1 -1 0  -0.96875 -1 0  -0.9375 -1 0  -0.90625 -1 0  -0.875 -1 0  -0.84375 -1 0  -0.8125 -1 0  -0.78125 -1 0  -0.75 -1 0  -0.71875 -1 0  -0.6875 -1 0  -0.65625 -1 0  -0.625 -1 0  -0.59375 -1 0  -0.5625 -1 0  -0.53125 -1 0  -0.5 -1 0  -0.46875 -1 0  -0.4375 -1 0  -0.40625 -1 0  -0.375 -1 0  -0.34375 -1 0  -0.3125 -1 0  -0.28125 -1 0  -0.25 -1 0  -0.21875 -1 0  -0.1875 -1 0  -0.15625 -1 0  -0.125 -1 0  -0.09375 -1 0  -0.0625 -1 0  -0.03125 -1 0  0 -1 0  0.03125 -1 0  0.0625 -1 0  0.09375 -1 0  0.125 -1 0  0.15625 -1 0  0.1875 -1 0  0.21875 -1 0  0.25 -1 0  0.28125 -1 0  0.3125 -1 0  0.34375 -1 0  0.375 -1 0  0.40625 -1 0  0.4375 -1 0  0.46875 -1 0  0.5 -1 0  0.53125 -1 0  0.5625 -1 0  0.59375 -1 0  0.625 -1 0  0.65625 -1 0  0.6875 -1 0  0.71875 -1 0  0.75 -1 0  0.78125 -1 0  0.8125 -1 0  0.84375 -1 0  0.875 -1 0  0.90625 -1 0  0.9375 -1 0  0.96875 -1 0  1 -1 0  -1 -0.96875 0  -0.96875 -0.96875 0  -0.9375 -0.96875 0  -0.90625 -0.96875 0  -0.875 -0.96875 0  -0.84375 -0.96875 0  -0.8125 -0.96875 0  -0.78125 -0.96875 0  -0.75 -0.96875 0  -0.71875 -0.96875 0  -0.6875 -0.96875 0  -0.65625 -0.96875 0  -0.625 -0.96875 0  -0.59375 -0.96875 0  -0.5625 -0.96875 0  -0.53125 -0.96875 0  -0.5 -0.96875 0  -0.46875 -0.96875 0  -0.4375 -0.96875 0  -0.40625 -0.96875 0  -0.375 -0.96875 0  -0.34375 -0.96875 0  -0.3125 -0.96875 0  -0.28125 -0.96875 0  -0.25 -0.96875 0  -0.21875 -0.96875 0  -0.1875 -0.96875 0  -0.15625 -0.96875 0  -0.125 -0.96875 0  -0.09375 -0.96875 0  -0.0625 -0.96875 0  -0.03125 -0.96875 0  0 -0.96875 0  0.03125 -0.96875 0  0.0625 -0.96875 0  0.09375 -0.96875 0  0.125 -0.96875 0  0.15625 -0.96875 0  0.1875 -0.96875 0  0.21875 -0.96875 0  0.25 -0.96875 0  0.28125 -0.96875 0  0.3125 -0.96875 0  0.34375 -0.96875 0  0.375 -0.96875 0  0.40625 -0.96875 0  0.4375 -0.96875 0  0.46875 -0.96875 0  0.5 -0.96875 0  0.53125 -0.96875 0  0.5625 -0.96875 0  0.59375 -0.96875 0  0.625 -0.96875 0  0.65625 -0.96875 0  0.6875 -0.96875 0  0.71875 -0.96875 0  0.75 -0.96875 0  0.78125 -0.96875 0  0.8125 -0.96875 0  0.84375 -0.96875 0  0.875 -0.96875 0  0.90625 -0.96875 0  0.9375 -0.96875 0  0.96875 -0.96875 0  1 -0.96875 0  -1 -0.9375 0  -0.96875 -0.9375 0  -0.9375 -0.9375 0  -0.90625 -0.9375 0  -0.875 -0.9375 0  -0.84375 -0.9375 0  -0.8125 -0.9375 0  -0.78125 -0.9375 0  -0.75 -0.9375 0  -0.71875 -0.9375 0  -0.6875 -0.9375 0  -0.65625 -0.9375 0  -0.625 -0.9375 0  -0.59375 -0.9375 0  -0.5625 -0.9375 0  -0.53125 -0.9375 0  -0.5 -0.9375 0  -0.46875 -0.9375 0  -0.4375 -0.9375 0  -0.40625 -0.9375 0  -0.375 -0.9375 0  -0.34375 -0.9375 0  -0.3125 -0.9375 0  -0.28125 -0.9375 0  -0.25 -0.9375 0  -0.21875 -0.9375 0  -0.1875 -0.9375 0  -0.15625 -0.9375 0  -0.125 -0.9375 0  -0.09375 -0.9375 0  -0.0625 -0.9375 0  -0.03125 -0.9375 0  0 -0.9375 0  0.03125 -0.9375 0  0.0625 -0.9375 0  0.09375 -0.9375 0  0.125 -0.9375 0  0.15625 -0.9375 0  0.1875 -0.9375 0  0.21875 -0.9375 0  0.25 -0.9375 0  0.28125 -0.9375 0  0.3125 -0.9375 0  0.34375 -0.9375 0  0.375 -0.9375 0  0.40625 -0.9375 0  0.4375 -0.9375 0  0.46875 -0.9375 0  0.5 -0.9375 0  0.53125 -0.9375 0  0.5625 -0.9375 0  0.59375 -0.9375 0  0.625 -0.9375 0  0.65625 -0.9375 0  0.6875 -0.9375 0  0.71875 -0.9375 0  0.75 -0.9375 0  0.78125 -0.9375 0  0.8125 -0.9375 0  0.84375 -0.9375 0  0.875 -0.9375 0  0.90625 -0.9375 0  0.9375 -0.9375 0  0.96875 -0.9375 0  1 -0.9375 0  -1 -0.90625 0  -0.96875 -0.90625 0  -0.9375 -0.90625 0  -0.90625 -0.90625 0  -0.875 -0.90625 0  -0.84375 -0.90625 0  -0.8125 -0.90625 0  -0.78125 -0.90625 0  -0.75 -0.90625 0  -0.71875 -0.90625 0  -0.6875 -0.90625 0  -0.65625 -0.90625 0  -0.625 -0.90625 0  -0.59375 -0.90625 0  -0.5625 -0.90625 0  -0.53125 -0.90625 0  -0.5 -0.90625 0  -0.46875 -0.90625 0  -0.4375 -0.90625 0  -0.40625 -0.90625 0  -0.375 -0.90625 0  -0.34375 -0.90625 0  -0.3125 -0.90625 0  -0.28125 -0.90625 0  -0.25 -0.90625 0  -0.21875 -0.90625 0  -0.1875 -0.90625 0  -0.15625 -0.90625 0  -0.125 -0.90625 0  -0.09375 -0.90625 0  -0.0625 -0.90625 0  -0.03125 -0.90625 0  0 -0.90625 0  0.03125 -0.90625 0  0.0625 -0.90625 0  0.09375 -0.90625 0  0.125 -0.90625 0  0.15625 -0.90625 0  0.1875 -0.90625 0  0.21875 -0.90625 0  0.25 -0.90625 0  0.28125 -0.90625 0  0.3125 -0.90625 0  0.34375 -0.90625 0  0.375 -0.90625 0  0.40625 -0.90625 0  0.4375 -0.90625 0  0.46875 -0.90625 0  0.5 -0.90625 0  0.53125 -0.90625 0  0.5625 -0.90625 0  0.59375 -0.90625 0  0.625 -0.90625 0  0.65625 -0.90625 0  0.6875 -0.90625 0  0.71875 -0.90625 0  0.75 -0.90625 0  0.78125 -0.90625 0  0.8125 -0.90625 0  0.84375 -0.90625 0  0.875 -0.90625 0  0.90625 -0.90625 0  0.9375 -0.90625 0  0.96875 -0.90625 0  1 -0.90625 0  -1 -0.875 0  -0.96875 -0.875 0  -0.9375 -0.875 0  -0.90625 -0.875 0  -0.875 -0.875 0  -0.84375 -0.875 0  -0.8125 -0.875 0  -0.78125 -0.875 0  -0.75 -0.875 0  -0.71875 -0.875 0  -0.6875 -0.875 0  -0.65625 -0.875 0  -0.625 -0.875 0  -0.59375 -0.875 0  -0.5625 -0.875 0  -0.53125 -0.875 0  -0.5 -0.875 0  -0.46875 -0.875 0  -0.4375 -0.875 0  -0.40625 -0.875 0  -0.375 -0.875 0  -0.34375 -0.875 0  -0.3125 -0.875 0  -0.28125 -0.875 0  -0.25 -0.875 0  -0.21875 -0.875 0  -0.1875 -0.875 0  -0.15625 -0.875 0  -0.125 -0.875 0  -0.09375 -0.875 0  -0.0625 -0.875 0  -0.03125 -0.875 0  0 -0.875 0  0.03125 -0.875 0  0.0625 -0.875 0  0.09375 -0.875 0  0.125 -0.875 0  0.15625 -0.875 0  0.1875 -0.875 0  0.21875 -0.875 0  0.25 -0.875 0  0.28125 -0.875 0  0.3125 -0.875 0  0.34375 -0.875 0  0.375 -0.875 0  0.40625 -0.875 0  0.4375 -0.875 0  0.46875 -0.875 0  0.5 -0.875 0  0.53125 -0.875 0  0.5625 -0.875 0  0.59375 -0.875 0  0.625 -0.875 0  0.65625 -0.875 0  0.6875 -0.875 0  0.71875 -0.875 0  0.75 -0.875 0  0.78125 -0.875 0  0.8125 -0.875 0  0.84375 -0.875 0  0.875 -0.875 0  0.90625 -0.875 0  0.9375 -0.875 0  0.96875 -0.875 0  1 -0.875 0  -1 -0.84375 0  -0.96875 -0.84375 0  -0.9375 -0.84375 0  -0.90625 -0.84375 0  -0.875 -0.84375 0  -0.84375 -0.84375 0  -0.8125 -0.84375 0  -0.78125 -0.84375 0  -0.75 -0.84375 0  -0.71875 -0.84375 0  -0.6875 -0.84375 0  -0.65625 -0.84375 0  -0.625 -0.84375 0  -0.59375 -0.84375 0  -0.5625 -0.84375 0  -0.53125 -0.84375 0  -0.5 -0.84375 0  -0.46875 -0.84375 0  -0.4375 -0.84375 0  -0.40625 -0.84375 0  -0.375 -0.84375 0  -0.34375 -0.84375 0  -0.3125 -0.84375 0  -0.28125 -0.84375 0  -0.25 -0.84375 0  -0.21875 -0.84375 0  -0.1875 -0.84375 0  -0.15625 -0.84375 0  -0.125 -0.84375 0  -0.09375 -0.84375 0  -0.0625 -0.84375 0  -0.03125 -0.84375 0  0 -0.84375 0  0.03125 -0.84375 0  0.0625 -0.84375 0  0.09375 -0.84375 0  0.125 -0.84375 0  0.15625 -0.84375 0  0.1875 -0.84375 0  0.21875 -0.84375 0  0.25 -0.84375 0  0.28125 -0.84375 0  0.3125 -0.84375 0  0.34375 -0.84375 0  0.375 -0.84375 0  0.40625 -0.84375 0  0.4375 -0.84375 0  0.46875 -0.84375 0  0.5 -0.84375 0  0.53125 -0.84375 0  0.5625 -0.84375 0  0.59375 -0.84375 0  0.625 -0.84375 0  0.65625 -0.84375 0  0.6875 -0.84375 0  0.71875 -0.84375 0  0.75 -0.84375 0  0.78125 -0.84375 0  0.8125 -0.84375 0  0.84375 -0.84375 0  0.875 -0.84375 0  0.90625 -0.84375 0  0.9375 -0.84375 0  0.96875 -0.84375 0  1 -0.84375 0  -1 -0.8125 0  -0.96875 -0.8125 0  -0.9375 -0.8125 0  -0.90625 -0.8125 0  -0.875 -0.8125 0  -0.84375 -0.8125 0  -0.8125 -0.8125 0  -0.78125 -0.8125 0  -0.75 -0.8125 0  -0.71875 -0.8125 0  -0.6875 -0.8125 0  -0.65625 -0.8125 0  -0.625 -0.8125 0  -0.59375 -0.8125 0  -0.5625 -0.8125 0  -0.53125 -0.8125 0  -0.5 -0.8125 0  -0.46875 -0.8125 0  -0.4375 -0.8125 0  -0.40625 -0.8125 0  -0.375 -0.8125 0  -0.34375 -0.8125 0  -0.3125 -0.8125 0  -0.28125 -0.8125 0  -0.25 -0.8125 0  -0.21875 -0.8125 0  -0.1875 -0.8125 0  -0.15625 -0.8125 0  -0.125 -0.8125 0  -0.09375 -0.8125 0  -0.0625 -0.8125 0  -0.03125 -0.8125 0  0 -0.8125 0  0.03125 -0.8125 0  0.0625 -0.8125 0  0.09375 -0.8125 0  0.125 -0.8125 0  0.15625 -0.8125 0  0.1875 -0.8125 0  0.21875 -0.8125 0  0.25 -0.8125 0  0.28125 -0.8125 0  0.3125 -0.8125 0  0.34375 -0.8125 0  0.375 -0.8125 0  0.40625 -0.8125 0  0.4375 -0.8125 0  0.46875 -0.8125 0  0.5 -0.8125 0  0.53125 -0.8125 0  0.5625 -0.8125 0  0.59375 -0.8125 0  0.625 -0.8125 0  0.65625 -0.8125 0  0.6875 -0.8125 0  0.71875 -0.8125 0  0.75 -0.8125 0  0.78125 -0.8125 0  0.8125 -0.8125 0  0.84375 -0.8125 0  0.875 -0.8125 0  0.90625 -0.8125 0  0.9375 -0.8125 0  0.96875 -0.8125 0  1 -0.8125 0  -1 -0.78125 0  -0.96875 -0.78125 0  -0.9375 -0.78125 0  -0.90625 -0.78125 0  -0.875 -0.78125 0  -0.84375 -0.78125 0  -0.8125 -0.78125 0  -0.78125 -0.78125 0  -0.75 -0.78125 0  -0.71875 -0.78125 0  -0.6875 -0.78125 0  -0.65625 -0.78125 0  -0.625 -0.78125 0  -0.59375 -0.78125 0  -0.5625 -0.78125 0  -0.53125 -0.78125 0  -0.5 -0.78125 0  -0.46875 -0.78125 0  -0.4375 -0.78125 0  -0.40625 -0.78125 0  -0.375 -0.78125 0  -0.34375 -0.78125 0  -0.3125 -0.78125 0  -0.28125 -0.78125 0  -0.25 -0.78125 0  -0.21875 -0.78125 0  -0.1875 -0.78125 0  -0.15625 -0.78125 0  -0.125 -0.78125 0  -0.09375 -0.78125 0  -0.0625 -0.78125 0  -0.03125 -0.78125 0  0 -0.78125 0  0.03125 -0.78125 0  0.0625 -0.78125 0  0.09375 -0.78125 0  0.125 -0.78125 0  0.15625 -0.78125 0  0.1875 -0.78125 0  0.21875 -0.78125 0  0.25 -0.78125 0  0.28125 -0.78125 0  0.3125 -0.78125 0  0.34375 -0.78125 0  0.375 -0.78125 0  0.40625 -0.78125 0  0.4375 -0.78125 0  0.46875 -0.78125 0  0.5 -0.78125 0  0.53125 -0.78125 0  0.5625 -0.78125 0  0.59375 -0.78125 0  0.625 -0.78125 0  0.65625 -0.78125 0  0.6875 -0.78125 0  0.71875 -0.78125 0  0.75 -0.78125 0  0.78125 -0.78125 0  0.8125 -0.78125 0  0.84375 -0.78125 0  0.875 -0.78125 0  0.90625 -0.78125 0  0.9375 -0.78125 0  0.96875 -0.78125 0  1 -0.78125 0  -1 -0.75 0  -0.96875 -0.75 0  -0.9375 -0.75 0  -0.90625 -0.75 0  -0.875 -0.75 0  -0.84375 -0.75 0  -0.8125 -0.75 0  -0.78125 -0.75 0  -0.75 -0.75 0  -0.71875 -0.75 0  -0.6875 -0.75 0  -0.65625 -0.75 0  -0.625 -0.75 0  -0.59375 -0.75 0  -0.5625 -0.75 0  -0.53125 -0.75 0  -0.5 -0.75 0  -0.46875 -0.75 0  -0.4375 -0.75 0  -0.40625 -0.75
[...]
<PointData  Scalars="f_15"> 
<DataArray  type="Float64"  Name="f_15"  format="ascii">-4.9022712643880068e-01  -4.8551733805217495e-01  -4.7156896741871562e-01  -4.4891804259953061e-01  -4.1843502593263587e-01  -3.8129136265346752e-01  -3.3891446291143795e-01  -2.9293284719839380e-01  -2.4511356321940028e-01  -1.9729427924040679e-01  -1.5131266352736270e-01  -1.0893576378533310e-01  -7.1792100506164802e-02  -4.1309083839270080e-02  -1.8658159020085000e-02  -4.7097883866258289e-03  0.0000000000000000e+00  -4.7097883866258289e-03  -1.8658159020085028e-02  -4.1309083839270094e-02  -7.1792100506164858e-02  -1.0893576378533315e-01  -1.5131266352736281e-01  -1.9729427924040693e-01  -2.4511356321940034e-01  -2.9293284719839380e-01  -3.3891446291143784e-01  -3.8129136265346758e-01  -4.1843502593263587e-01  -4.4891804259953061e-01  -4.7156896741871568e-01  -4.8551733805217495e-01  -4.9022712643880068e-01  -4.8551733805217495e-01  -4.7156896741871568e-01  -4.4891804259953061e-01  -4.1843502593263587e-01  -3.8129136265346758e-01  -3.3891446291143784e-01  -2.9293284719839380e-01  -2.4511356321940034e-01  -1.9729427924040693e-01  -1.5131266352736281e-01  -1.0893576378533315e-01  -7.1792100506164858e-02  -4.1309083839270094e-02  -1.8658159020085028e-02  -4.7097883866258289e-03  0.0000000000000000e+00  -4.7097883866258289e-03  -1.8658159020085000e-02  -4.1309083839270080e-02  -7.1792100506164802e-02  -1.0893576378533310e-01  -1.5131266352736270e-01  -1.9729427924040679e-01  -2.4511356321940028e-01  -2.9293284719839380e-01  -3.3891446291143795e-01  -3.8129136265346752e-01  -4.1843502593263587e-01  -4.4891804259953061e-01  -4.7156896741871562e-01  -4.8551733805217495e-01  -4.9022712643880068e-01  -4.8551733805217495e-01  -3.9867873993423325e-01  -2.9807288000526494e-01  -1.7857433213284987e-01  -5.0817572052293189e-02  8.0561128269717092e-02  2.1240491459136140e-01  3.4207765702821885e-01  4.6711135026738659e-01  5.8510545021461158e-01  6.9372682320025236e-01  7.9075608478089454e-01  8.7415417168167475e-01  9.4213485545207010e-01  9.9323435333448518e-01  1.0263716321819294e+00  1.0408949554893272e+00  1.0366112742509546e+00  1.0137966762651618e+00  9.7318705908885006e-01  9.1594976613975743e-01  8.4363775015906761e-01  7.5812913533751702e-01  6.6155548342006010e-01  5.5622281740450519e-01  4.4452932856083149e-01  3.2888381981033210e-01  2.1162836225960419e-01  9.4968290683366305e-02  -1.9088057265506081e-02  -1.2877797664585955e-01  -2.3262015539554498e-01  -3.2943686987191445e-01  -4.1836241288553777e-01  -4.9883817659298202e-01  -5.7059524859847144e-01  -6.3362610726664148e-01  -6.8814735624454915e-01  -7.3455613020468924e-01  -7.7338287962827101e-01  -8.0524361901432751e-01  -8.3079427992379351e-01  -8.5068970611176542e-01  -8.6554889475834718e-01  -8.7592761995232693e-01  -8.8229847308389364e-01  -8.8503796398739165e-01  -8.8441950782684353e-01  -8.8061121478343085e-01  -8.7367715618339670e-01  -8.6358148855557137e-01  -8.5019512800884123e-01  -8.3330576498360631e-01  -8.1263258346012224e-01  -7.8784864884242634e-01  -7.5861163567135836e-01  -7.2462713796221201e-01  -6.8565001889892463e-01  -6.4191507136317505e-01  -5.9306566559684604e-01  -5.4295005659071205e-01  -4.8542746198086140e-01  -4.5166927573347904e-01  -3.8268350087809150e-01  -4.8551733805217495e-01  -4.7156896741871562e-01  -4.3061385018308274e-01  -3.4997306955007296e-01  -2.6397526751452355e-01  -1.7272886275123928e-01  -7.8859243510391738e-02  1.5391737361376452e-02  1.0798928694758643e-01  1.9706233682303567e-01  2.8085892546081648e-01  3.5774296668975369e-01  4.2621448877551965e-01  4.8494039029239600e-01  5.3278815880783081e-01  5.6885753342437528e-01  5.9250711939391665e-01  6.0337372904669051e-01  6.0138342777592402e-01  5.8675347535179201e-01  5.5998525780948027e-01  5.2184832777009682e-01  4.7335641904534270e-01  4.1573619574368542e-01  3.5039004358517173e-01  2.7885401740153071e-01  2.0275247477462774e-01  1.2375070802835231e-01  4.3507163068147774e-02  -3.6373308080274926e-02  -1.1438357517355342e-01  -1.8915427725437545e-01  -2.5948838836617238e-01  -3.2438905591703482e-01  -3.8307976973176905e-01  -4.3501613847068971e-01  -4.7988902471620720e-01  -5.1761898008348906e-01  -5.4834247067996689e-01  -5.7239044342209189e-01  -5.9026028458545676e-01  -6.0258211995246480e-01  -6.1008088287588136e-01  -6.1353538482256242e-01  -6.1373608120470624e-01  -6.1144302921255977e-01  -6.0734600054366439e-01  -6.0202845072986322e-01  -5.9593740854578614e-01  -5.8936090334063140e-01  -5.8241472606647715e-01  -5.7503965451826278e-01  -5.6701026439128999e-01  -5.5795574757915201e-01  -5.4739325108985037e-01  -5.3477425050237815e-01  -5.1954206507960798e-01  -5.0122224588544240e-01  -4.7944074869674719e-01  -4.5440343083012558e-01  -4.2563658682979105e-01  -3.9762271061324417e-01  -3.6135457520232905e-01  -3.5786397281372678e-01  -2.7802619722448424e-01  -4.7156896741871562e-01  -4.4891804259953061e-01  -4.7579294680989898e-01  -3.7234192181452608e-01  -2.8411916668324405e-01  -1.9018999483203855e-01  -9.5409655941559687e-02  -1.0270866965372634e-03  9.1266647980348642e-02  1.7988064901136333e-01  2.6326530956397926e-01  3.3993545819423732e-01  4.0849915723377511e-01  4.6769403652756381e-01  5.1642637589741791e-01  5.5380898144988533e-01  5.7919446893874282e-01  5.9220133950166687e-01  5.9273076213535369e-01  5.8097280879755209e-01  5.5740151616756184e-01  5.2275899095801981e-01  4.7802938064886119e-01  4.2440421591112709e-01  3.6324098818097295e-01  2.9601716374282078e-01  2.2428182892040660e-01  1.4960715521211862e-01  7.3541604979588782e-02  -2.4334540322634500e-03  -7.6942387885544389e-02  -1.4874815260918028e-01  -2.1677861264261852e-01  -2.8014583126396503e-01  -3.3815804257616278e-01  -3.9032425263465542e-01  -4.3635159752380964e-01  -4.7613583318405978e-01  -5.0974549931739865e-01  -5.3740057734573043e-01  -5.5944658962806537e-01  -5.7632533673825170e-01  -5.8854349795711058e-01  -5.9664049462863089e-01  -6.0115693170426421e-01  -6.0260496941146935e-01  -6.0144178415128868e-01  -5.9804724064164372e-01  -5.9270662492464321e-01  -5.8559924119157136e-01  -5.7679340599979378e-01  -5.6624840670177012e-01  -5.5382383017761305e-01  -5.3929680894351018e-01  -5.2238775257357928e-01  -5.0279590655197715e-01  -4.8024273677680551e-01  -4.5454871182069773e-01  -4.2561676452331820e-01  -3.9395479022807040e-01  -3.5905560599023861e-01  -3.2620770584684128e-01  -2.8279675041003494e-01  -2.8061358823469151e-01  -1.6177935916111458e-01  -4.4891804259953061e-01  -4.1843502593263587e-01  -5.2683512117347919e-01  -4.0272840496812451e-01  -3.2130661166883590e-01  -2.3237583439463699e-01  -1.4516690908465960e-01  -5.9205642541552729e-02  2.4106209216633100e-02  1.0358515211501117e-01  1.7801431813221455e-01  2.4622279996593990e-01  3.0711666833413981e-01  3.5971257365739018e-01  4.0316923213475031e-01  4.3681567236594038e-01  4.6017468389681310e-01  4.7298024843811837e-01  4.7518797896609616e-01  4.6697809978289095e-01  4.4875077224474130e-01  4.2111408853454385e-01  3.8486523279869744e-01  3.4096572682308118e-01  2.9051176504799003e-01  2.3470091262581322e-01  1.7479642740665047e-01  1.1209059242868470e-01  4.7868352089093194e-02  -1.6627436274787147e-02  -8.0227996391172701e-02  -1.4186681022264197e-01  -2.0060311915402423e-01  -2.5564006114864118e-01  -3.0633697360298773e-01  -3.5221563110179455e-01  -3.9296038198225752e-01  -4.2841242810561603e-01  -4.5855864683629344e-01  -4.8351560809772315e-01  -5.0350953954548383e-01  -5.1885319142603636e-01  -5.2992057642348112e-01  -5.3712068919883227e-01  -5.4087125549625914e-01  -5.4157364983530443e-01  -5.3958999351385595e-01  -5.3522347875799203e-01  -5.2870281627626037e-01  -5.2017168561468075e-01  -5.0968389612114839e-01  -4.9720492123208249e-01  -4.8262030053968125e-01  -4.6575140934639997e-01  -4.4637895451599297e-01  -4.2427510964795967e-01  -3.9924106199903764e-01  -3.7117716897550934e-01  -3.4003737636344816e-01  -3.0639385947783238e-01  -2.6946177251066528e-01  -2.3510573770440543e-01  -1.8693531338788019e-01  -1.8791430274353174e-01  -3.3551814791229907e-02  -4.1843502593263587e-01  -3.8129136265346752e-01  -5.7761030268639446e-01  -4.3283615851512219e-01  -3.5665467803674195e-01  -2.6946151822238212e-01  -1.8632472893355831e-01  -1.0498899669175180e-01  -2.6773788317560186e-02  4.7502116855166032e-02  1.1687258805578264e-01  1.8039452969382158e-01  2.3717198358706068e-01  2.8639233323003188e-01  3.2735677671257829e-01  3.5950673444896514e-01  3.8244561531668381e-01  3.9595507306016503e-01  4.0000518070725444e-01  3.9475796437639676e-01  3.8056426483386674e-01  3.5795396656293565e-01  3.2762019573632950e-01  2.9039813942219889e-01  2.4723958076630398e-01  1.9918419295246351e-01  1.4732890191729220e-01  9.2796480623552002e-02  3.6704633210552805e-02  -1.9863396513778917e-02  -7.5885675029123703e-02  -1.3042509190039245e-01  -1.8264885443858961e-01  -2.3184346591927807e-01  -2.7742486675095090e-01  -3.1894355353675297e-01  -3.5608473516638334e-01  -3.8866366125571694e-01  -4.1661653459247400e-01  -4.3998744991914829e-01  -4.5891207760663744e-01  -4.7359876684592761e-01  -4.8430798950029996e-01  -4.9133093381957327e-01  -4.9496826541736849e-01  -4.9550986893516852e-01  -4.9321655070489306e-01  -4.8830443271845342e-01  -4.8093288775209003e-01  -4.7119657500478601e-01  -4.5912223083107667e-01  -4.4467058197818382e-01  -4.2774385035180762e-01  -4.0819903003975705e-01  -3.8586723048558491e-01  -3.6057957991107548e-01  -3.3219562379791101e-01  -3.0066344494948954e-01  -2.6594245460095750e-01  -2.2861219246691694e-01  -1.8754675588615274e-01  -1.4917844957588008e-01  -9.3396012701759318e-02  -9.4782099081830037e-02  9.6307960795224357e-02  -3.8129136265346752e-01  -3.3891446291143795e-01  -6.2546668496255819e-01  -4.6098673880112179e-01  -3.9099022126070515e-01  -3.0595672029208582e-01  -2.2702768952565380e-01  -1.5024174683978070e-01  -7.6970072471199885e-02  -7.7190147654727995e-03  5.6751391154772984e-02  1.1570145744619080e-01  1.6841670658973457e-01  2.1424654348441005e-01  2.5263210423449017e-01  2.8312980334582094e-01  3.0543002196272634e-01  3.1937083903439845e-01  3.2494640000972663e-01  3.2230986762714109e-01  3.1177082713982190e-01  2.9378747840237390e-01  2.6895390013215531e-01  2.3798309935182915e-01  2.0168649000408639e-01  1.6095077155562712e-01  1.1671304882962472e-01  6.9935235843144344e-02  2.1578622654060076e-02  -2.7420442530946332e-02  -7.6172981130315148e-02  -1.2385718264781441e-01  -1.6973499288848776e-01  -2.1316504138524683e-01  -2.5361158110199766e-01  -2.9064931164937580e-01  -3.2396403626893466e-01  -3.5334935332422618e-01  -3.7869960088088966e-01  -3.9999954513490404e-01  -4.1731125682249393e-01  -4.3075889333209982e-01  -4.4051197894576960e-01  -4.4676802505507157e-01  -4.4973514381676000e-01  -4.4961552629663343e-01  -4.4659040121763310e-01  -4.4080727972549988e-01  -4.3236998797215015e-01  -4.2133216031740417e-01  -4.0769452373354020e-01  -3.9140645516184291e-01  -3.7237194403653701e-01  -3.5046022376902669e-01  -3.2552093344964972e-01  -2.9740425740141541e-01  -2.6598091531804990e-01  -2.3119379596844081e-01  -1.9295262986245232e-01  -1.5179322770847475e-01  -1.0621570922898586e-01  -6.3240082241906526e-02  8.8425557721544842e-04  -2.1285025496256622e-04  2.2712392415396843e-01  -3.3891446291143795e-01  -2.9293284719839380e-01  -6.6922728879402105e-01  -4.8604435140175728e-01  -4.2291732895503864e-01  -3.3998321448688812e-01  -2.6482243129512867e-01  -1.9190618134256124e-01  -1.2276237172697768e-01  -5.7650969400797690e-02  2.8210011475645501e-03  5.8074997780135661e-02  1.0754082629275287e-01  1.5069695872301545e-01  1.8709527868293474e-01  2.1638217249823277e-01  2.3831506913917139e-01  2.5277445254367309e-01  2.5977127955773766e-01  2.5944973054616671e-01  2.5208535594724690e-01  2.3807880072179294e-01  2.1794546361111911e-01  1.9230157723793020e-01  1.6184733334320509e-01  1.2734776154121125e-01  8.9612138805753708e-02  4.9472723947320468e-02  7.7636030336684170e-03  -3.4699605329172323e-02  -7.7138506254805700e-02  -1.1882854906238971e-01  -1.5911302041682415e-01  -1.9741402475078848e-01  -2.3324019389359923e-01  -2.6619098659991614e-01  -2.9595756997491424e-01  -3.2232039048944844e-01  -3.4514367208403385e-01  -3.6436716825604959e-01  -3.7999561319635355e-01  -3.9208636630978039e-01  -4.0073583611867530e-01  -4.0606527620513494e-01  -4.0820659504339118e-01  -4.0728878765359811e-01  -4.0342561447863728e-01  -3.9670505983377652e-01  -3.8718110892025970e-01  -3.7486823818083204e-01  -3.5973900393606650e-01  -3.4172494171426299e-01  -3.2072094582076610e-01  -2.9659310629751018e-01  -2.6918986273995893e-01  -2.3835659589817892e-01  -2.0394811703511742e-01  -1.6587322589702805e-01  -1.2396532720297071e-01  -7.8695393449016993e-02  -2.8191797606959515e-02  1.9920838555304413e-02  9.2919762209251341e-02  9.2762393385775549e-02  3.5552201204918499e-01  -2.9293284719839380e-01  -2.4511356321940028e-01  -7.0845694184576391e-01  -5.0757355154581119e-01  -4.5189505023956400e-01  -3.7118994947166645e-01  -2.9968385213674847e-01  -2.3032203321411771e-01  -1.6486718392164984e-01  -1.0339089065298900e-01  -4.6393449058149724e-02  5.6713939021404884e-03  5.2348299776754668e-02  9.3220938322640265e-02  1.2793274231027046e-01  1.5620534419048474e-01  1.7785285255621647e-01  1.9279214862732810e-01  2.0104927592965088e-01  2.0276185663852755e-01  1.9817770815836130e-01  1.8764975309563806e-01  1.7162761232924112e-01  1.5064619951667385e-01  1.2531190356983471e-01  9.6286852115210306e-02  6.4271956793205687e-02  2.9989321512931898e-02  -5.8352849040083522e-03  -4.2489327826185898e-02  -7.9289170694038569e-02  -1.1559403100426710e-01  -1.5081779673722914e-01  -1.8443838051669723e-01  -2.1600439221919993e-01  -2.4513898810223042e-01  -2.7154090863326652e-01  -2.9498275346884617e-01  -3.1530671764127222e-01  -3.3241801816442140e-01  -3.4627641043334811e-01  -3.5688615854781852e-01  -3.6428498096072504e-01  -3.6853241136505099e-01  -3.6969815120966193e-01  -3.6785085893040592e-01  -3.6304792667633901e-01  -3.5532664615157400e-01  -3.4469721047725804e-01  -3.3113784028755056e-01  -3.1459233034828588e-01  -2.9497012797115779e-01  -2.7214903750610914e-01  -2.4598040722868336e-01  -2.1629657687732659e-01  -1.8292063088031479e-01  -1.4567255925748310e-01  -1.0440844203723797e-01  -5.8871211986152125e-02  -9.4568095472024952e-03  4.6061274906972496e-02  9.9462906235634391e-02  1.8139238887149928e-01  1.8252255478772200e-01  4.7927217410775824e-01  -2.4511356321940028e-01  -1.9729427924040679e-01  -7.4313158742990637e-01  -5.2559028076075887e-01  -4.7772152724064459e-01  -3.9933857088140801e-01  -3.3137791043101406e-01  -2.6529448760509194e-01  -2.0314811374921699e-01  -1.4486640086442684e-01  -9.0881291552641227e-02  -4.1553478995745713e-02  2.7500387208828892e-03  4.1696025554432817e-02  7.5001326405511562e-02  1.0244848772611016e-01  1.2389772198363939e-01  1.3929560177967973e-01  1.4868041208587754e-01  1.5218426374798122e-01  1.5003197574896984e-01  1.4253696952563233e-01  1.3009434588490848e-01  1.1317155244986310e-01  9.2296973303108182e-02  6.8046981517966385e-02  4.1031898245042782e-02  1.1881445487607859e-02  -1.8769834917597157e-02  -5.0296638337816078e-02  -8.2095998713242260e-02  -1.1359899266281601e-01  -1.4428070965815701e-01  -1.7366820689789234e-01  -2.0134624944122628e-01  -2.2696074274288067e-01  -2.5021981172355551e-01  -2.7089261983619234e-01  -2.8880603989472114e-01  -3.0383943354968124e-01  -3.1591778106247270e-01  -3.2500354613116578e-01  -3.3108760540746446e-01  -3.3417970331948610e-01  -3.3429878676742314e-01  -3.3146369735917591e-01  -3.2568455561567661e-01  -3.1695525059158108e-01  -3.0524729548566659e-01  -2.9050534541773221e-01  -2.7264450372514210e-01  -2.5154954553027664e-01  -2.2707597846305813e-01  -1.9905284669252982e-01  -1.6728690135382909e-01  -1.3156826957157203e-01  -9.1671466877962737e-02  -4.7390509405200856e-02  1.6262206300930696e-03  5.5061361046329700e-02  1.1546812311930442e-01  1.7407040766026399e-01  2.6464474658080217e-01  2.6726769732270722e-01  5.9592678687602452e-01  -1.9729427924040679e-01  -1.5131266352736270e-01  -7.7344665162813775e-01  -5.4039654085215227e-01  -5.0044296290742385e-01  -4.2441255331731276e-01  -3.5988203928862472e-01  -2.9684887850554514e-01  -2.3770635171236906e-01  -1.8226938077757382e-01  -1.3093097493690600e-01  -8.3984082415892766e-02  -4.1729015033386004e-02  -4.4341023496702109e-03  2.7676012350500455e-02  5.4433057068449586e-02  7.5734834108583685e-02  9.1552261048250413e-02  1.0193374055695625e-01  1.0700683237358725e-01  1.0697733253665033e-01  1.0212584772691939e-01  9.2802106374501050e-02  7.9417235250789822e-02  6.2434370340837375e-02  4.2357938913802622e-02  1.9722065243382759e-02  -4.9215062597963034e-03  -3.1015502850992950e-02  -5.8008845080470064e-02  -8.5367582596093589e-02  -1.1258471517367188e-01  -1.3918859438468870e-01  -1.6474967619742856e-01  -1.8888545921685726e-01  -2.1126350632366658e-01  -2.3160253624936900e-01  -2.4967161658012035e-01  -2.6528758885198966e-01  -2.7831088119045183e-01  -2.8863996068046749e-01  -2.9620466973403020e-01  -3.0095878538074411e-01  -3.0287209279655430e-01  -3.0192234916126737e-01  -2.9808742555292483e-01  -2.9133798068367062e-01  -2.8163090957525461e-01  -2.6890383796574818e-01  -2.5307080530079523e-01  -2.3401927723856375e-01  -2.1160847674712430e-01  -1.8566899639842077e-01  -1.5600346706463411e-01  -1.2238798525482346e-01  -8.4574377595719522e-02  -4.2287168881728988e-02  4.7445384889717437e-03  5.6964260753844337e-02  1.1413359332444441e-01  1.7909452623301331e-01  2.4258545588443356e-01  3.4118786730551098e-01  3.4538556305060331e-01  7.0317463583083806e-01  -1.5131266352736270e-01  -1.0893576378533310e-01  -7.9969760615831187e-01  -5.5246246920755349e-01  -5.2025833370830799e-01  -4.4653160980759693e-01  -3.8527398609336944e-01  -3.2506876567454873e-01  -2.6865899193607812e-01  -2.1576821758490619e-01  -1.6677108115288680e-01  -1.2191162251084114e-01  -8.1440231120859505e-02  -4.5574787372848487e-02  -1.4493480102578444e-02  1.1675041522927136e-02  3.2859142168499604e-02  4.9049674094197096e-02  6.0303341858861603e-02  6.6743930669961052e-02  6.8561430452567212e-02  6.6009148255122288e-02  5.9398961174513758e-02  4.9094923912494925e-02  3.5505486451918637e-02  1.9074634521841143e-02  2.7227593588007628e-04  -2.0415764103249058e-02  -4.2497801973276107e-02  -6.5486048610506220e-02  -8.8905748764003575e-02  -1.1230340815899269e-01  -1.3525387017033585e-01  -1.5736603809961258e-01  -1.7828710586804680e-01  -1.9770520747007442e-01  -2.1535046425999035e-01  -2.3099445735480392e-01  -2.4444821687370144e-01  -2.5555886411029277e-01  -2.6420508840056722e-01  -2.7029168036354312e-01  -2.7374336141383065e-01  -2.7449818036558860e-01  -2.7250073286461146e-01  -2.6769547832457785e-01  -2.6002038607422301e-01  -2.4940113662882976e-01  -2.3574603978715505e-01  -2.1894179981141476e-01  -1.9885017592694285e-01  -1.7530552603319402e-01  -1.4811312103666066e-01  -1.1704803879930012e-01  -8.1854298719965149e-02  -4.2244400704013890e-02  2.1068556330620962e-03  5.1533227906674771e-02  1.0656252142258933e-01  1.6703361950357926e-01  2.3602994739493274e-01  3.0390344423037202e-01  4.0961302230321583e-01  4.1537328439397919e-01  7.9880189389574541e-01  -1.0893576378533310e-01  -7.1792100506164802e-02  -8.2220198003312506e-01  -5.6233512505435634e-01  -5.3744499639892140e-01  -4.6589474343967813e-01  -4.0769741795301656e-01  -3.5008741418456191e-01  -2.9615549099264871e-01  -2.4554696815827878e-01  -1.9863067433680803e-01  -1.5561460699480134e-01  -1.1671130092995502e-01  -8.2098975685570938e-02  -5.1918583088326260e-02  -2.6266573218645648e-02  -5.1894996412134263e-03  1.1319983466723842e-02  2.3325527630513595e-02  3.0947859179254727e-02  3.4363876732151244e-02  3.3804158832607394e-02  2.9548964066278369e-02  2.1922906284702452e-02  1.1288492500166291e-02  -1.9612219086541931e-03  -1.7410601367089856e-02  -3.462973599657