<?xml version="1.0"?>
<VTKFile type="UnstructuredGrid"  version="0.1"  >
<UnstructuredGrid>
<Piece  NumberOfPoints="4225" NumberOfCells="8192">
<Points>
<DataArray  type="Float64"  NumberOfComponents="3"  format="ascii">-1 -1 0  -0.96875 -1 0  -0.9375 -1 0  -0.90625 -1 0  -0.875 -1 0  -0.84375 -1 0  -0.8125 -1 0  -0.78125 -1 0  -0.75 -1 0  -0.71875 -1 0  -0.6875 -1 0  -0.65625 -1 0  -0.625 -1 0  -0.59375 -1 0  -0.5625 -1 0  -0.53125 -1 0  -0.5 -1 0  -0.46875 -1 0  -0.4375 -1 0  -0.40625 -1 0  -0.375 -1 0  -0.34375 -1 0  -0.3125 -1 0  -0.28125 -1 0  -0.25 -1 0  -0.21875 -1 0  -0.1875 -1 0  -0.15625 -1 0  -0.125 -1 0  -0.09375 -1 0  -0.0625 -1 0  -0.03125 -1 0  0 -1 0  0.03125 -1 0  0.0625 -1 0  0.09375 -1 0  0.125 -1 0  0.15625 -1 0  0.1875 -1 0  0.21875 -1 0  0.25 -1 0  0.28125 -1 0  0.3125 -1 0  0.34375 -1 0  0.375 -1 0  0.40625 -1 0  0.4375 -1 0  0.46875 -1 0  0.5 -1 0  0.53125 -1 0  0.5625 -1 0  0.59375 -1 0  0.625 -1 0  0.65625 -1 0  0.6875 -1 0  0.71875 -1 0  0.75 -1 0  0.78125 -1 0  0.8125 -1 0  0.84375 -1 0  0.875 -1 0  0.90625 -1 0  0.9375 -1 0  0.96875 -1 0  1 -1 0  -1 -0.96875 0  -0.96875 -0.96875 0  -0.9375 -0.96875 0  -0.90625 -0.96875 0  -0.875 -0.96875 0  -0.84375 -0.96875 0  -0.8125 -0.96875 0  -0.78125 -0.96875 0  -0.75 -0.96875 0  -0.71875 -0.96875 0  -0.6875 -0.96875 0  -0.65625 -0.96875 0  -0.625 -0.96875 0  -0.59375 -0.96875 0  -0.5625 -0.96875 0  -0.53125 -0.96875 0  -0.5 -0.96875 0  -0.46875 -0.96875 0  -0.4375 -0.96875 0  -0.40625 -0.96875 0  -0.375 -0.96875 0  -0.34375 -0.96875 0  -0.3125 -0.96875 0  -0.28125 -0.96875 0  -0.25 -0.96875 0  -0.21875 -0.96875 0  -0.1875 -0.96875 0  -0.15625 -0.96875 0  -0.125 -0.96875 0  -0.09375 -0.96875 0  -0.0625 -0.96875 0  -0.03125 -0.96875 0  0 -0.96875 0  0.03125 -0.96875 0  0.0625 -0.96875 0  0.09375 -0.96875 0  0.125 -0.96875 0  0.15625 -0.96875 0  0.1875 -0.96875 0  0.21875 -0.96875 0  0.25 -0.96875 0  0.28125 -0.96875 0  0.3125 -0.96875 0  0.34375 -0.96875 0  0.375 -0.96875 0  0.40625 -0.96875 0  0.4375 -0.96875 0  0.46875 -0.96875 0  0.5 -0.96875 0  0.53125 -0.96875 0  0.5625 -0.96875 0  0.59375 -0.96875 0  0.625 -0.96875 0  0.65625 -0.96875 0  0.6875 -0.96875 0  0.71875 -0.96875 0  0.75 -0.96875 0  0.78125 -0.96875 0  0.8125 -0.96875 0  0.84375 -0.96875 0  0.875 -0.96875 0  0.90625 -0.96875 0  0.9375 -0.96875 0  0.96875 -0.96875 0  1 -0.96875 0  -1 -0.9375 0  -0.96875 -0.9375 0  -0.9375 -0.9375 0  -0.90625 -0.9375 0  -0.875 -0.9375 0  -0.84375 -0.9375 0  -0.8125 -0.9375 0  -0.78125 -0.9375 0  -0.75 -0.9375 0  -0.71875 -0.9375 0  -0.6875 -0.9375 0  -0.65625 -0.9375 0  -0.625 -0.9375 0  -0.59375 -0.9375 0  -0.5625 -0.9375 0  -0.53125 -0.9375 0  -0.5 -0.9375 0  -0.46875 -0.9375 0  -0.4375 -0.9375 0  -0.40625 -0.9375 0  -0.375 -0.9375 0  -0.34375 -0.9375 0  -0.3125 -0.9375 0  -0.28125 -0.9375 0  -0.25 -0.9375 0  -0.21875 -0.9375 0  -0.1875 -0.9375 0  -0.15625 -0.9375 0  -0.125 -0.9375 0  -0.09375 -0.9375 0  -0.0625 -0.9375 0  -0.03125 -0.9375 0  0 -0.9375 0  0.03125 -0.9375 0  0.0625 -0.9375 0  0.09375 -0.9375 0  0.125 -0.9375 0  0.15625 -0.9375 0  0.1875 -0.9375 0  0.21875 -0.9375 0  0.25 -0.9375 0  0.28125 -0.9375 0  0.3125 -0.9375 0  0.34375 -0.9375 0  0.375 -0.9375 0  0.40625 -0.9375 0  0.4375 -0.9375 0  0.46875 -0.9375 0  0.5 -0.9375 0  0.53125 -0.9375 0  0.5625 -0.9375 0  0.59375 -0.9375 0  0.625 -0.9375 0  0.65625 -0.9375 0  0.6875 -0.9375 0  0.71875 -0.9375 0  0.75 -0.9375 0  0.78125 -0.9375 0  0.8125 -0.9375 0  0.84375 -0.9375 0  0.875 -0.9375 0  0.90625 -0.9375 0  0.9375 -0.9375 0  0.96875 -0.9375 0  1 -0.9375 0  -1 -0.90625 0  -0.96875 -0.90625 0  -0.9375 -0.90625 0  -0.90625 -0.90625 0  -0.875 -0.90625 0  -0.84375 -0.90625 0  -0.8125 -0.90625 0  -0.78125 -0.90625 0  -0.75 -0.90625 0  -0.71875 -0.90625 0  -0.6875 -0.90625 0  -0.65625 -0.90625 0  -0.625 -0.90625 0  -0.59375 -0.90625 0  -0.5625 -0.90625 0  -0.53125 -0.90625 0  -0.5 -0.90625 0  -0.46875 -0.90625 0  -0.4375 -0.90625 0  -0.40625 -0.90625 0  -0.375 -0.90625 0  -0.34375 -0.90625 0  -0.3125 -0.90625 0  -0.28125 -0.90625 0  -0.25 -0.90625 0  -0.21875 -0.90625 0  -0.1875 -0.90625 0  -0.15625 -0.90625 0  -0.125 -0.90625 0  -0.09375 -0.90625 0  -0.0625 -0.90625 0  -0.03125 -0.90625 0  0 -0.90625 0  0.03125 -0.90625 0  0.0625 -0.90625 0  0.09375 -0.90625 0  0.125 -0.90625 0  0.15625 -0.90625 0  0.1875 -0.90625 0  0.21875 -0.90625 0  0.25 -0.90625 0  0.28125 -0.90625 0  0.3125 -0.90625 0  0.34375 -0.90625 0  0.375 -0.90625 0  0.40625 -0.90625 0  0.4375 -0.90625 0  0.46875 -0.90625 0  0.5 -0.90625 0  0.53125 -0.90625 0  0.5625 -0.90625 0  0.59375 -0.90625 0  0.625 -0.90625 0  0.65625 -0.90625 0  0.6875 -0.90625 0  0.71875 -0.90625 0  0.75 -0.90625 0  0.78125 -0.90625 0  0.8125 -0.90625 0  0.84375 -0.90625 0  0.875 -0.90625 0  0.90625 -0.90625 0  0.9375 -0.90625 0  0.96875 -0.90625 0  1 -0.90625 0  -1 -0.875 0  -0.96875 -0.875 0  -0.9375 -0.875 0  -0.90625 -0.875 0  -0.875 -0.875 0  -0.84375 -0.875 0  -0.8125 -0.875 0  -0.78125 -0.875 0  -0.75 -0.875 0  -0.71875 -0.875 0  -0.6875 -0.875 0  -0.65625 -0.875 0  -0.625 -0.875 0  -0.59375 -0.875 0  -0.5625 -0.875 0  -0.53125 -0.875 0  -0.5 -0.875 0  -0.46875 -0.875 0  -0.4375 -0.875 0  -0.40625 -0.875 0  -0.375 -0.875 0  -0.34375 -0.875 0  -0.3125 -0.875 0  -0.28125 -0.875 0  -0.25 -0.875 0  -0.21875 -0.875 0  -0.1875 -0.875 0  -0.15625 -0.875 0  -0.125 -0.875 0  -0.09375 -0.875 0  -0.0625 -0.875 0  -0.03125 -0.875 0  0 -0.875 0  0.03125 -0.875 0  0.0625 -0.875 0  0.09375 -0.875 0  0.125 -0.875 0  0.15625 -0.875 0  0.1875 -0.875 0  0.21875 -0.875 0  0.25 -0.875 0  0.28125 -0.875 0  0.3125 -0.875 0  0.34375 -0.875 0  0.375 -0.875 0  0.40625 -0.875 0  0.4375 -0.875 0  0.46875 -0.875 0  0.5 -0.875 0  0.53125 -0.875 0  0.5625 -0.875 0  0.59375 -0.875 0  0.625 -0.875 0  0.65625 -0.875 0  0.6875 -0.875 0  0.71875 -0.875 0  0.75 -0.875 0  0.78125 -0.875 0  0.8125 -0.875 0  0.84375 -0.875 0  0.875 -0.875 0  0.90625 -0.875 0  0.9375 -0.875 0  0.96875 -0.875 0  1 -0.875 0  -1 -0.84375 0  -0.96875 -0.84375 0  -0.9375 -0.84375 0  -0.90625 -0.84375 0  -0.875 -0.84375 0  -0.84375 -0.84375 0  -0.8125 -0.84375 0  -0.78125 -0.84375 0  -0.75 -0.84375 0  -0.71875 -0.84375 0  -0.6875 -0.84375 0  -0.65625 -0.84375 0  -0.625 -0.84375 0  -0.59375 -0.84375 0  -0.5625 -0.84375 0  -0.53125 -0.84375 0  -0.5 -0.84375 0  -0.46875 -0.84375 0  -0.4375 -0.84375 0  -0.40625 -0.84375 0  -0.375 -0.84375 0  -0.34375 -0.84375 0  -0.3125 -0.84375 0  -0.28125 -0.84375 0  -0.25 -0.84375 0  -0.21875 -0.84375 0  -0.1875 -0.84375 0  -0.15625 -0.84375 0  -0.125 -0.84375 0  -0.09375 -0.84375 0  -0.0625 -0.84375 0  -0.03125 -0.84375 0  0 -0.84375 0  0.03125 -0.84375 0  0.0625 -0.84375 0  0.09375 -0.84375 0  0.125 -0.84375 0  0.15625 -0.84375 0  0.1875 -0.84375 0  0.21875 -0.84375 0  0.25 -0.84375 0  0.28125 -0.84375 0  0.3125 -0.84375 0  0.34375 -0.84375 0  0.375 -0.84375 0  0.40625 -0.84375 0  0.4375 -0.84375 0  0.46875 -0.84375 0  0.5 -0.84375 0  0.53125 -0.84375 0  0.5625 -0.84375 0  0.59375 -0.84375 0  0.625 -0.84375 0  0.65625 -0.84375 0  0.6875 -0.84375 0  0.71875 -0.84375 0  0.75 -0.84375 0  0.78125 -0.84375 0  0.8125 -0.84375 0  0.84375 -0.84375 0  0.875 -0.84375 0  0.90625 -0.84375 0  0.9375 -0.84375 0  0.96875 -0.84375 0  1 -0.84375 0  -1 -0.8125 0  -0.96875 -0.8125 0  -0.9375 -0.8125 0  -0.90625 -0.8125 0  -0.875 -0.8125 0  -0.84375 -0.8125 0  -0.8125 -0.8125 0  -0.78125 -0.8125 0  -0.75 -0.8125 0  -0.71875 -0.8125 0  -0.6875 -0.8125 0  -0.65625 -0.8125 0  -0.625 -0.8125 0  -0.59375 -0.8125 0  -0.5625 -0.8125 0  -0.53125 -0.8125 0  -0.5 -0.8125 0  -0.46875 -0.8125 0  -0.4375 -0.8125 0  -0.40625 -0.8125 0  -0.375 -0.8125 0  -0.34375 -0.8125 0  -0.3125 -0.8125 0  -0.28125 -0.8125 0  -0.25 -0.8125 0  -0.21875 -0.8125 0  -0.1875 -0.8125 0  -0.15625 -0.8125 0  -0.125 -0.8125 0  -0.09375 -0.8125 0  -0.0625 -0.8125 0  -0.03125 -0.8125 0  0 -0.8125 0  0.03125 -0.8125 0  0.0625 -0.8125 0  0.09375 -0.8125 0  0.125 -0.8125 0  0.15625 -0.8125 0  0.1875 -0.8125 0  0.21875 -0.8125 0  0.25 -0.8125 0  0.28125 -0.8125 0  0.3125 -0.8125 0  0.34375 -0.8125 0  0.375 -0.8125 0  0.40625 -0.8125 0  0.4375 -0.8125 0  0.46875 -0.8125 0  0.5 -0.8125 0  0.53125 -0.8125 0  0.5625 -0.8125 0  0.59375 -0.8125 0  0.625 -0.8125 0  0.65625 -0.8125 0  0.6875 -0.8125 0  0.71875 -0.8125 0  0.75 -0.8125 0  0.78125 -0.8125 0  0.8125 -0.8125 0  0.84375 -0.8125 0  0.875 -0.8125 0  0.90625 -0.8125 0  0.9375 -0.8125 0  0.96875 -0.8125 0  1 -0.8125 0  -1 -0.78125 0  -0.96875 -0.78125 0  -0.9375 -0.78125 0  -0.90625 -0.78125 0  -0.875 -0.78125 0  -0.84375 -0.78125 0  -0.8125 -0.78125 0  -0.78125 -0.78125 0  -0.75 -0.78125 0  -0.71875 -0.78125 0  -0.6875 -0.78125 0  -0.65625 -0.78125 0  -0.625 -0.78125 0  -0.59375 -0.78125 0  -0.5625 -0.78125 0  -0.53125 -0.78125 0  -0.5 -0.78125 0  -0.46875 -0.78125 0  -0.4375 -0.78125 0  -0.40625 -0.78125 0  -0.375 -0.78125 0  -0.34375 -0.78125 0  -0.3125 -0.78125 0  -0.28125 -0.78125 0  -0.25 -0.78125 0  -0.21875 -0.78125 0  -0.1875 -0.78125 0  -0.15625 -0.78125 0  -0.125 -0.78125 0  -0.09375 -0.78125 0  -0.0625 -0.78125 0  -0.03125 -0.78125 0  0 -0.78125 0  0.03125 -0.78125 0  0.0625 -0.78125 0  0.09375 -0.78125 0  0.125 -0.78125 0  0.15625 -0.78125 0  0.1875 -0.78125 0  0.21875 -0.78125 0  0.25 -0.78125 0  0.28125 -0.78125 0  0.3125 -0.78125 0  0.34375 -0.78125 0  0.375 -0.78125 0  0.40625 -0.78125 0  0.4375 -0.78125 0  0.46875 -0.78125 0  0.5 -0.78125 0  0.53125 -0.78125 0  0.5625 -0.78125 0  0.59375 -0.78125 0  0.625 -0.78125 0  0.65625 -0.78125 0  0.6875 -0.78125 0  0.71875 -0.78125 0  0.75 -0.78125 0  0.78125 -0.78125 0  0.8125 -0.78125 0  0.84375 -0.78125 0  0.875 -0.78125 0  0.90625 -0.78125 0  0.9375 -0.78125 0  0.96875 -0.78125 0  1 -0.78125 0  -1 -0.75 0  -0.96875 -0.75 0  -0.9375 -0.75 0  -0.90625 -0.75 0  -0.875 -0.75 0  -0.84375 -0.75 0  -0.8125 -0.75 0  -0.78125 -0.75 0  -0.75 -0.75 0  -0.71875 -0.75 0  -0.6875 -0.75 0  -0.65625 -0.75 0  -0.625 -0.75 0  -0.59375 -0.75 0  -0.5625 -0.75 0  -0.53125 -0.75 0  -0.5 -0.75 0  -0.46875 -0.75 0  -0.4375 -0.75 0  -0.40625 -0.75
[...]
<PointData  Scalars="f_15"> 
<DataArray  type="Float64"  Name="f_15"  format="ascii">-4.5641975665698059e-01  -4.5203476783568569e-01  -4.3904831403307348e-01  -4.1795945738589113e-01  -3.8957863082832273e-01  -3.5499649360882463e-01  -3.1554201786685654e-01  -2.7273141697885694e-01  -2.2820987832849027e-01  -1.8368833967812359e-01  -1.4087773879012402e-01  -1.0142326304815587e-01  -6.6841125828657824e-02  -3.8460299271089397e-02  -1.7371442623907028e-02  -4.3849888212948405e-03  0.0000000000000000e+00  -4.3849888212948405e-03  -1.7371442623907052e-02  -3.8460299271089425e-02  -6.6841125828657866e-02  -1.0142326304815592e-01  -1.4087773879012414e-01  -1.8368833967812367e-01  -2.2820987832849030e-01  -2.7273141697885694e-01  -3.1554201786685648e-01  -3.5499649360882479e-01  -3.8957863082832273e-01  -4.1795945738589113e-01  -4.3904831403307359e-01  -4.5203476783568569e-01  -4.5641975665698059e-01  -4.5203476783568569e-01  -4.3904831403307359e-01  -4.1795945738589113e-01  -3.8957863082832273e-01  -3.5499649360882479e-01  -3.1554201786685648e-01  -2.7273141697885694e-01  -2.2820987832849030e-01  -1.8368833967812367e-01  -1.4087773879012414e-01  -1.0142326304815592e-01  -6.6841125828657866e-02  -3.8460299271089425e-02  -1.7371442623907052e-02  -4.3849888212948405e-03  0.0000000000000000e+00  -4.3849888212948405e-03  -1.7371442623907028e-02  -3.8460299271089397e-02  -6.6841125828657824e-02  -1.0142326304815587e-01  -1.4087773879012402e-01  -1.8368833967812359e-01  -2.2820987832849027e-01  -2.7273141697885694e-01  -3.1554201786685654e-01  -3.5499649360882463e-01  -3.8957863082832273e-01  -4.1795945738589113e-01  -4.3904831403307348e-01  -4.5203476783568569e-01  -4.5641975665698059e-01  -4.5203476783568569e-01  -3.3179915138581428e-01  -3.0611306394495774e-01  -2.6262011685307945e-01  -2.1006060009397345e-01  -1.4993770466915271e-01  -8.4321613662045533e-02  -1.5283802366382748e-02  5.5086879350285757e-02  1.2471068082207168e-01  1.9156061960331791e-01  2.5371699704520106e-01  3.0942451156390921e-01  3.5714584313495684e-01  3.9560800032318161e-01  4.2383954718335715e-01  4.4119804500479654e-01  4.4738746124873580e-01  4.4246544638519641e-01  4.2683999995931476e-01  4.0125463812134998e-01  3.6676040678303767e-01  3.2467259621171080e-01  2.7650983765319154e-01  2.2391450591782794e-01  1.6855639277073717e-01  1.1202692587214044e-01  5.5737274098506755e-02  8.3785591935774042e-04  -5.1824430839847495e-02  -1.0170299851900486e-01  -1.4850678796505842e-01  -1.9213016974892980e-01  -2.3257893787973355e-01  -2.6991037888815050e-01  -3.0419569001478358e-01  -3.3550283577753837e-01  -3.6389150350704608e-01  -3.8941126900495959e-01  -4.1209738800894824e-01  -4.3196355223552690e-01  -4.4899439945930497e-01  -4.6314211248448012e-01  -4.7433049933087901e-01  -4.8246803799408450e-01  -4.8746875271947376e-01  -4.8927788853137316e-01  -4.8789787734930845e-01  -4.8340987818131392e-01  -4.7598644225583214e-01  -4.6589231093664946e-01  -4.5347172608572056e-01  -4.3912395466143711e-01  -4.2326835776325011e-01  -4.0631350866902355e-01  -3.8861914406505854e-01  -3.7054679180890665e-01  -3.5241114955482533e-01  -3.3507925979528647e-01  -3.1917617980140378e-01  -3.0893669463933393e-01  -3.0210493786303028e-01  -3.2015215718674100e-01  -3.1098338516504342e-01  -4.5203476783568569e-01  -4.3904831403307348e-01  -3.1249850618780578e-01  -3.2240599493982902e-01  -2.9334722803870844e-01  -2.5817434463853545e-01  -2.1596735123446445e-01  -1.6857280798861199e-01  -1.1766463695084033e-01  -6.4975499676587459e-02  -1.2260794295346881e-02  3.8744654177707109e-02  8.6383127337007246e-02  1.2913435255456432e-01  1.6567240722605453e-01  1.9491448733408115e-01  2.1605932580767837e-01  2.2861438183089874e-01  2.3241157613699429e-01  2.2761111100118736e-01  2.1469260260164780e-01  1.9443201479069858e-01  1.6786252575588104e-01  1.3621735708207686e-01  1.0085395281822124e-01  6.3161916516041403e-02  2.4462290584035023e-02  -1.4088571961741224e-02  -5.1573546500760237e-02  -8.7352123068665105e-02  -1.2105278510412670e-01  -1.5252438844610530e-01  -1.8176169683823357e-01  -2.0882574808719109e-01  -2.3377795471956536e-01  -2.5663932942414303e-01  -2.7737714826227922e-01  -2.9591394677512867e-01  -3.1215023006053005e-01  -3.2599206613606230e-01  -3.3737698020444917e-01  -3.4629408792647898e-01  -3.5279669259420499e-01  -3.5700663810086747e-01  -3.5911051617259998e-01  -3.5934818888927555e-01  -3.5799500846300741e-01  -3.5533990214039696e-01  -3.5166256226405118e-01  -3.4721326138928510e-01  -3.4219872059783218e-01  -3.3677634918778621e-01  -3.3105750814105622e-01  -3.2511980739942142e-01  -3.1902411692922039e-01  -3.1284453931072687e-01  -3.0668410600149199e-01  -3.0077871953298746e-01  -2.9541507522304716e-01  -2.9157047881867704e-01  -2.8959033903153075e-01  -2.9376845958475911e-01  -2.9875743926363668e-01  -3.2755355007286152e-01  -3.0579676198725120e-01  -4.3904831403307348e-01  -4.1795945738589113e-01  -3.0077695702547996e-01  -3.0251908885094086e-01  -2.7026132903558064e-01  -2.3475678046258799e-01  -1.9205661595546500e-01  -1.4427322195680659e-01  -9.2883404203789169e-02  -3.9503203552590682e-02  1.4187135546117750e-02  6.6480485636842709e-02  1.1570216599235579e-01  1.6027861597858131e-01  1.9880672013024414e-01  2.3011650746760093e-01  2.5332253036836966e-01  2.6786147934730026e-01  2.7351482630094670e-01  2.7041565804351592e-01  2.5903851283941282e-01  2.4017060870905541e-01  2.1486286546663574e-01  1.8436037706284483e-01  1.5001486822141413e-01  1.1318608014005420e-01  7.5143702532049939e-02  3.6984347427827795e-02  -4.2297974416975401e-04  -3.6455036146935307e-02  -7.0716730928001750e-02  -1.0299655834506763e-01  -1.3320873438925179e-01  -1.6133601217326141e-01  -1.8738369752723244e-01  -2.1135019020809759e-01  -2.3321432673979958e-01  -2.5293621870171212e-01  -2.7046658066605961e-01  -2.8575956498737237e-01  -2.9878518949590122e-01  -3.0953896199811576e-01  -3.1804764756994197e-01  -3.2437116818720402e-01  -3.2860120640220225e-01  -3.3085743829594766e-01  -3.3128242604949659e-01  -3.3003623994738757e-01  -3.2729171029101239e-01  -3.2323102231324230e-01  -3.1804395971428689e-01  -3.1192795665286221e-01  -3.0508948755258047e-01  -2.9774789544879010e-01  -2.9013865748697643e-01  -2.8253022887054857e-01  -2.7522012066183793e-01  -2.6864122949105712e-01  -2.6320569128531085e-01  -2.6006060160986511e-01  -2.5919216614957064e-01  -2.6524051535641052e-01  -2.6926471553597758e-01  -2.9903010278300174e-01  -2.5695398808370529e-01  -4.1795945738589113e-01  -3.8957863082832273e-01  -3.0220966129649612e-01  -2.9418477194996839e-01  -2.6305652866883983e-01  -2.2897045358456442e-01  -1.8926819042741730e-01  -1.4579464172209983e-01  -9.9641359694594547e-02  -5.2125052423675051e-02  -4.6149975927904201e-03  4.1490765730005881e-02  8.4815342949388153e-02  1.2406065171740162e-01  1.5806783892816686e-01  1.8587396504058878e-01  2.0675955829910683e-01  2.2028317210885706e-01  2.2630034872117211e-01  2.2496536420293420e-01  2.1671473114789996e-01  2.0223229093131495e-01  1.8239697575056260e-01  1.5821645567338513e-01  1.3075242797225464e-01  1.0104577122281513e-01  7.0050889307867334e-02  3.8587631675155956e-02  7.3159128999762584e-03  -2.3266400837075828e-02  -5.2806247529280044e-02  -8.1065626158124057e-02  -1.0788711602361596e-01  -1.3316147837857942e-01  -1.5680206325292878e-01  -1.7872830097369680e-01  -1.9885828221972326e-01  -2.1710883871718906e-01  -2.3340062839744891e-01  -2.4766565092890053e-01  -2.5985497892450932e-01  -2.6994521015206463e-01  -2.7794277991511085e-01  -2.8388587732231868e-01  -2.8784404123817015e-01  -2.8991583419635858e-01  -2.9022511601645407e-01  -2.8891664554455421e-01  -2.8615177395125674e-01  -2.8210505409794784e-01  -2.7696238612584867e-01  -2.7092128553936878e-01  -2.6419309922205286e-01  -2.5700872528246627e-01  -2.4962370433226980e-01  -2.4233938720894682e-01  -2.3549354447582710e-01  -2.2958332205071322e-01  -2.2503300658761874e-01  -2.2310740959426731e-01  -2.2336142787706653e-01  -2.3098024332089978e-01  -2.3334732036919059e-01  -2.6475460732460548e-01  -2.0526684389303781e-01  -3.8957863082832273e-01  -3.5499649360882463e-01  -3.1207196257114533e-01  -2.9117298153164006e-01  -2.5829306326925017e-01  -2.2286967542442931e-01  -1.8350877151155526e-01  -1.4133767045783566e-01  -9.7213111254446705e-02  -5.2213197639802048e-02  -7.4735978845182167e-03  3.5825995891581995e-02  7.6509117274264682e-02  1.1345366201474191e-01  1.4564665387498885e-01  1.7223727895587618e-01  1.9258297434555477e-01  2.0628391808246840e-01  2.1320245899760010e-01  2.1346522391052633e-01  2.0744712947342431e-01  1.9573799115427146e-01  1.7909431116801078e-01  1.5838064632948540e-01  1.3450670702119127e-01  1.0836716883441391e-01  8.0790931277977471e-02  5.2504848012508328e-02  2.4114341160462141e-02  -3.8996689540760111e-03  -3.1170536654960123e-02  -5.7426886863688194e-02  -8.2469733937142020e-02  -1.0615004122437777e-01  -1.2834990264056417e-01  -1.4896908122150690e-01  -1.6791734538361067e-01  -1.8511190915048389e-01  -2.0047869064075499e-01  -2.1395578751369787e-01  -2.2549776155199974e-01  -2.3507956498732410e-01  -2.4269944754275222e-01  -2.4838048234018870e-01  -2.5217077037842323e-01  -2.5414250918377868e-01  -2.5439037945066928e-01  -2.5302968181489566e-01  -2.5019477687428654e-01  -2.4603822602086373e-01  -2.4073098637698709e-01  -2.3446395261161479e-01  -2.2745059992883468e-01  -2.1993258878817021e-01  -2.1218341638527496e-01  -2.0453049378112179e-01  -1.9733630183320403e-01  -1.9114099054018857e-01  -1.8634594034343943e-01  -1.8433082474086901e-01  -1.8415339514166815e-01  -1.9175827482662244e-01  -1.9064025719307826e-01  -2.2304315516269019e-01  -1.4498238950865608e-01  -3.5499649360882463e-01  -3.1554201786685654e-01  -3.2666160769114261e-01  -2.9251793767384604e-01  -2.5841527660889890e-01  -2.2195366944793377e-01  -1.8298919698378660e-01  -1.4219570038571661e-01  -1.0026957131532872e-01  -5.8065609654891118e-02  -1.6506239009053330e-02  2.3445194496837535e-02  6.0829747376577002e-02  9.4736570590428837e-02  1.2434799413034978e-01  1.4898211217767401e-01  1.6812907594581947e-01  1.8147756023438133e-01  1.8892856703188421e-01  1.9059498956948542e-01  1.8678667460452891e-01  1.7798232496545641e-01  1.6479096694657014e-01  1.4790701099348716e-01  1.2806360170170050e-01  1.0598906816944278e-01  8.2370528074775545e-02  5.7827426006510113e-02  3.2896105199279206e-02  8.0249203879242722e-03  -1.6421899237541386e-02  -4.0154214988213310e-02  -6.2942597407183790e-02  -8.4604248518581560e-02  -1.0499030285367202e-01  -1.2397589227318810e-01  -1.4145352858663435e-01  -1.5732973434123149e-01  -1.7152428814524992e-01  -1.8397127499039190e-01  -1.9462101665193424e-01  -2.0344218413999093e-01  -2.1042351605666038e-01  -2.1557491281856112e-01  -2.1892779116457789e-01  -2.2053486672487313e-01  -2.2046953836158220e-01  -2.1882523656723982e-01  -2.1571499260738439e-01  -2.1127159955049241e-01  -2.0564850747526686e-01  -1.9902186204400454e-01  -1.9159329570000894e-01  -1.8359583677214897e-01  -1.7529682892399751e-01  -1.6702227480885196e-01  -1.5912902922639940e-01  -1.5217216625537144e-01  -1.4649644592804578e-01  -1.4359734800167578e-01  -1.4197901501907578e-01  -1.4856336872813794e-01  -1.4277562163261281e-01  -1.7596284955942285e-01  -7.9425417809719998e-02  -3.1554201786685654e-01  -2.7273141697885694e-01  -3.4349679092790136e-01  -2.9643771466876395e-01  -2.6161614095859764e-01  -2.2408722968943751e-01  -1.8528911235106352e-01  -1.4547343447351002e-01  -1.0518271717267423e-01  -6.5087474808268694e-02  -2.5935013224766653e-02  1.1489136811418860e-02  4.6401025977728272e-02  7.8056251705732202e-02  1.0578763456489435e-01  1.2903986251025645e-01  1.4739867834300618e-01  1.6061198020014369e-01  1.6860076038281166e-01  1.7145868730990943e-01  1.6944028432780983e-01  1.6293887489271255e-01  1.5245657859437306e-01  1.3856948895655699e-01  1.2189156880447641e-01  1.0304072708614316e-01  8.2609966800504031e-02  6.1145582330401176e-02  3.9133271862354907e-02  1.6991966371999661e-02  -4.9257198441877400e-03  -2.6328089108422371e-02  -4.6975941769210841e-02  -6.6672998830657665e-02  -8.5256719526901101e-02  -1.0259059783497712e-01  -1.1855850598500758e-01  -1.3306117906690576e-01  -1.4601457553455766e-01  -1.5734963227612081e-01  -1.6701287139813578e-01  -1.7496735726813240e-01  -1.8119363198914482e-01  -1.8569040185796537e-01  -1.8847490167188813e-01  -1.8958298319153610e-01  -1.8906907351538468e-01  -1.8700618585508255e-01  -1.8348620219531939e-01  -1.7862062190855280e-01  -1.7254192618502889e-01  -1.6540588249039292e-01  -1.5739442354335403e-01  -1.4872172707838321e-01  -1.3963641451032247e-01  -1.3044824559861479e-01  -1.2149120114528125e-01  -1.1331853161121914e-01  -1.0619578071009579e-01  -1.0173836451444612e-01  -9.7854241611620651e-02  -1.0263295226905471e-01  -9.1294752776371974e-02  -1.2519256035196613e-01  -1.0455729575496148e-02  -2.7273141697885694e-01  -2.2820987832849027e-01  -3.6121816613530461e-01  -3.0175367796322922e-01  -2.6689539712055016e-01  -2.2856400871980426e-01  -1.9001945237115464e-01  -1.5110184362814641e-01  -1.1226162077837042e-01  -7.4024388198800681e-02  -3.6992513113676857e-02  -1.8023359236486274e-03  3.0910859078083119e-02  6.0546286360830905e-02  8.6568877657683799e-02  1.0853696134102346e-01  1.2612485210686694e-01  1.3913864882863006e-01  1.4752397852447766e-01  1.5136500463108019e-01  1.5087490281832686e-01  1.4637877414367034e-01  1.3829079390636420e-01  1.2708783698242229e-01  1.1328212893633635e-01  9.7395297131868230e-02  7.9935872903622945e-02  6.1381625730940921e-02  4.2167444172420257e-02  2.2678730978212300e-02  3.2497092227149302e-03  -1.5834407076399298e-02  -3.4332636717612157e-02  -5.2042116927622416e-02  -6.8791775918429263e-02  -8.4436618248724699e-02  -9.8853156274856718e-02  -1.1193616004090801e-01  -1.2359668698183195e-01  -1.3376113036378084e-01  -1.4237099968697053e-01  -1.4938309107370673e-01  -1.5476982527958402e-01  -1.5851955413839167e-01  -1.6063680134334438e-01  -1.6114241400687818e-01  -1.6007373962683738e-01  -1.5748491707343004e-01  -1.5344744473393312e-01  -1.4805114991925183e-01  -1.4140568692893038e-01  -1.3364288755400025e-01  -1.2491958599503458e-01  -1.1542382077740417e-01  -1.0537637048280479e-01  -9.5059830678995608e-02  -8.4772834678317616e-02  -7.5053828969441433e-02  -6.6073266564558905e-02  -5.9567712422979931e-02  -5.2826546834945663e-02  -5.5253007322375272e-02  -3.7827429946893969e-02  -7.2479168825541770e-02  5.9817613762208892e-02  -2.2820987832849027e-01  -1.8368833967812359e-01  -3.7917065888094947e-01  -3.0774685149662717e-01  -2.7347178336430833e-01  -2.3455243728287661e-01  -1.9630713522763107e-01  -1.5818008913295595e-01  -1.2057552873027433e-01  -8.3900289059424552e-02  -4.8639103303793590e-02  -1.5305469150746388e-02  1.5588038479600665e-02  4.3558509463482900e-02  6.8178411504915465e-02  8.9097808531205386e-02  1.0606202779439185e-01  1.1892375881404899e-01  1.2764877555467793e-01  1.3231496880760868e-01  1.3310486960679899e-01  1.3029249571550941e-01  1.2422579418252741e-01  1.1530638053566142e-01  1.0396836447038531e-01  9.0658051325066769e-02  7.5815983957461877e-02  5.9862421862961444e-02  4.3186815812736194e-02  2.6141373485579083e-02  9.0383489484439708e-03  -7.8496138563112338e-03  -2.4286940209573948e-02  -4.0071282888305262e-02  -5.5029184966293311e-02  -6.9011900772507476e-02  -8.1891791051523236e-02  -9.3559525941339455e-02  -1.0392211063949794e-01  -1.1290165539787690e-01  -1.2043469798091687e-01  -1.2647191520331558e-01  -1.3097803439663169e-01  -1.3393185870532792e-01  -1.3532631742841153e-01  -1.3516857560804255e-01  -1.3348021575311586e-01  -1.3029759759489670e-01  -1.2567246108701699e-01  -1.1967291856512854e-01  -1.1238489623812520e-01  -1.0391441413542135e-01  -9.4390256424444902e-02  -8.3970205396827910e-02  -7.2841958906687210e-02  -6.1254237420375300e-02  -4.9462844919659237e-02  -3.7981827413431958e-02  -2.6878260602819875e-02  -1.8005639951651799e-02  -8.0401801922795665e-03  -7.7834824424297218e-03  1.5928897345378147e-02  -1.9589695182282423e-02  1.2932285542197769e-01  -1.8368833967812359e-01  -1.4087773879012402e-01  -3.9700170976521676e-01  -3.1399338650501879e-01  -2.8080730166589457e-01  -2.4146813321130908e-01  -2.0356742895070334e-01  -1.6615007347224439e-01  -1.2961302342530479e-01  -9.4269713181775419e-02  -6.0511813860231127e-02  -2.8752012016115398e-02  5.9874994535783356e-04  2.7155645435797581e-02  5.0580941357951929e-02  7.0601733532112021e-02  8.7023707320868476e-02  9.9740295180256455e-02  1.0873680085182966e-01  1.1408933999467104e-01  1.1595886402584810e-01  1.1458089355465673e-01  1.1025196304449185e-01  1.0331398302719186e-01  9.4137857183453591e-02  8.3107610616514976e-02  7.0606135286304550e-02  5.7003344026018719e-02  4.2647211891581091e-02  2.7857811951824577e-02  1.2924165469144717e-02  -1.8965250574404270e-03  -1.6377826730903208e-02  -3.0321830390854881e-02  -4.3556293809500338e-02  -5.5931656655109123e-02  -6.7318284616917731e-02  -7.7604144500819636e-02  -8.6692999300819820e-02  -9.4503096443403614e-02  -1.0096628103891948e-01  -1.0602741678106120e-01  -1.0964403075622360e-01  -1.1178609016401866e-01  -1.1243589027408078e-01  -1.1158802822947743e-01  -1.0924950981372657e-01  -1.0544002346303175e-01  -1.0019246723069165e-01  -9.3553814840330748e-02  -8.5586418476890150e-02  -7.6370103236137257e-02  -6.6004657190150778e-02  -5.4615953754287801e-02  -4.2356360542776236e-02  -2.9437236339121146e-02  -1.6068220169720381e-02  -2.7319014873055645e-03  1.0608229281870489e-02  2.1993393683363900e-02  3.5321894300500138e-02  3.8387083580944524e-02  6.8253764408102838e-02  3.1731279260892094e-02  1.9603464933538806e-01  -1.4087773879012402e-01  -1.0142326304815587e-01  -4.1442126925339889e-01  -3.2024285659214291e-01  -2.8850922207091512e-01  -2.4885654385208433e-01  -2.1131844783147219e-01  -1.7452678548154979e-01  -1.3890378618994659e-01  -1.0468863744403749e-01  -7.2199351721387764e-02  -4.1765795885136098e-02  -1.3714613582834139e-02  1.1651125254350522e-02  3.4068645228273041e-02  5.3329456904417469e-02  6.9289991634825687e-02  8.1878517019068689e-02  9.1098080302973922e-02  9.7025457358413544e-02  9.9806348644671403e-02  9.9647331762896613e-02  9.6805311952462517e-02  9.1575372782595379e-02  8.4277991446687087e-02  7.5246557331021466e-02  6.4815996176084009e-02  5.3313118295732320e-02  4.1049056110336095e-02  2.8313929363477826e-02  1.5373637011613383e-02  2.4685146166096485e-03  -1.0186530150612995e-02  -2.2400828969948855e-02  -3.4006136463112784e-02  -4.4854545737137222e-02  -5.4816419802144495e-02  -6.3778520207518563e-02  -7.1642432331801301e-02  -7.8323308605250219e-02  -8.3748905348811728e-02  -8.7858862639243987e-02  -9.0604170492630129e-02  -9.1946779257635156e-02  -9.1859324338794970e-02  -9.0324966891655423e-02  -8.7337365448597729e-02  -8.2900821473008771e-02  -7.7030652585702949e-02  -6.9753890929009549e-02  -6.1110388430073229e-02  -5.1154701981439191e-02  -3.9958369265203068e-02  -2.7615829078475068e-02  -1.4244456705482062e-02  -1.7667830140868527e-05  1.4900524130350973e-02  3.0063537889975161e-02  4.5603153270544275e-02  5.9475235602232057e-02  7.6078782287278629e-02  8.1886062086547570e-02  1.1746231800876961e-01  7.9815960952668574e-02  2.5803412615532473e-01  -1.0142326304815587e-01  -6.6841125828657824e-02  -4.3109796363959185e-01  -3.2634240170693957e-01  -2.9626710915394772e-01  -2.5635465104878363e-01  -2.1917375348695178e-01  -1.8292650381338230e-01  -1.4808462675943804e-01  -1.1482668052188484e-01  -8.3412402735944718e-02  -5.4103229713721453e-02  -2.7155385657261263e-02  -2.8031864361712290e-03  1.8753844255613317e-02  3.7361811126273486e-02  5.2920532207752335e-02  6.5388671884584179e-02  7.4785764604841293e-02  8.1191169014082201e-02  8.4740157727468179e-02  8.5617558011648623e-02  8.4049492571867723e-02  8.0293896849780264e-02  7.4630518023484069e-02  6.7351084710237069e-02  5.8750245220024561e-02  4.91