<?xml version="1.0"?>
<VTKFile type="UnstructuredGrid"  version="0.1"  >
<UnstructuredGrid>
<Piece  NumberOfPoints="4225" NumberOfCells="8192">
<Points>
<DataArray  type="Float64"  NumberOfComponents="3"  format="ascii">-1 -1 0  -0.96875 -1 0  -0.9375 -1 0  -0.90625 -1 0  -0.875 -1 0  -0.84375 -1 0  -0.8125 -1 0  -0.78125 -1 0  -0.75 -1 0  -0.71875 -1 0  -0.6875 -1 0  -0.65625 -1 0  -0.625 -1 0  -0.59375 -1 0  -0.5625 -1 0  -0.53125 -1 0  -0.5 -1 0  -0.46875 -1 0  -0.4375 -1 0  -0.40625 -1 0  -0.375 -1 0  -0.34375 -1 0  -0.3125 -1 0  -0.28125 -1 0  -0.25 -1 0  -0.21875 -1 0  -0.1875 -1 0  -0.15625 -1 0  -0.125 -1 0  -0.09375 -1 0  -0.0625 -1 0  -0.03125 -1 0  0 -1 0  0.03125 -1 0  0.0625 -1 0  0.09375 -1 0  0.125 -1 0  0.15625 -1 0  0.1875 -1 0  0.21875 -1 0  0.25 -1 0  0.28125 -1 0  0.3125 -1 0  0.34375 -1 0  0.375 -1 0  0.40625 -1 0  0.4375 -1 0  0.46875 -1 0  0.5 -1 0  0.53125 -1 0  0.5625 -1 0  0.59375 -1 0  0.625 -1 0  0.65625 -1 0  0.6875 -1 0  0.71875 -1 0  0.75 -1 0  0.78125 -1 0  0.8125 -1 0  0.84375 -1 0  0.875 -1 0  0.90625 -1 0  0.9375 -1 0  0.96875 -1 0  1 -1 0  -1 -0.96875 0  -0.96875 -0.96875 0  -0.9375 -0.96875 0  -0.90625 -0.96875 0  -0.875 -0.96875 0  -0.84375 -0.96875 0  -0.8125 -0.96875 0  -0.78125 -0.96875 0  -0.75 -0.96875 0  -0.71875 -0.96875 0  -0.6875 -0.96875 0  -0.65625 -0.96875 0  -0.625 -0.96875 0  -0.59375 -0.96875 0  -0.5625 -0.96875 0  -0.53125 -0.96875 0  -0.5 -0.96875 0  -0.46875 -0.96875 0  -0.4375 -0.96875 0  -0.40625 -0.96875 0  -0.375 -0.96875 0  -0.34375 -0.96875 0  -0.3125 -0.96875 0  -0.28125 -0.96875 0  -0.25 -0.96875 0  -0.21875 -0.96875 0  -0.1875 -0.96875 0  -0.15625 -0.96875 0  -0.125 -0.96875 0  -0.09375 -0.96875 0  -0.0625 -0.96875 0  -0.03125 -0.96875 0  0 -0.96875 0  0.03125 -0.96875 0  0.0625 -0.96875 0  0.09375 -0.96875 0  0.125 -0.96875 0  0.15625 -0.96875 0  0.1875 -0.96875 0  0.21875 -0.96875 0  0.25 -0.96875 0  0.28125 -0.96875 0  0.3125 -0.96875 0  0.34375 -0.96875 0  0.375 -0.96875 0  0.40625 -0.96875 0  0.4375 -0.96875 0  0.46875 -0.96875 0  0.5 -0.96875 0  0.53125 -0.96875 0  0.5625 -0.96875 0  0.59375 -0.96875 0  0.625 -0.96875 0  0.65625 -0.96875 0  0.6875 -0.96875 0  0.71875 -0.96875 0  0.75 -0.96875 0  0.78125 -0.96875 0  0.8125 -0.96875 0  0.84375 -0.96875 0  0.875 -0.96875 0  0.90625 -0.96875 0  0.9375 -0.96875 0  0.96875 -0.96875 0  1 -0.96875 0  -1 -0.9375 0  -0.96875 -0.9375 0  -0.9375 -0.9375 0  -0.90625 -0.9375 0  -0.875 -0.9375 0  -0.84375 -0.9375 0  -0.8125 -0.9375 0  -0.78125 -0.9375 0  -0.75 -0.9375 0  -0.71875 -0.9375 0  -0.6875 -0.9375 0  -0.65625 -0.9375 0  -0.625 -0.9375 0  -0.59375 -0.9375 0  -0.5625 -0.9375 0  -0.53125 -0.9375 0  -0.5 -0.9375 0  -0.46875 -0.9375 0  -0.4375 -0.9375 0  -0.40625 -0.9375 0  -0.375 -0.9375 0  -0.34375 -0.9375 0  -0.3125 -0.9375 0  -0.28125 -0.9375 0  -0.25 -0.9375 0  -0.21875 -0.9375 0  -0.1875 -0.9375 0  -0.15625 -0.9375 0  -0.125 -0.9375 0  -0.09375 -0.9375 0  -0.0625 -0.9375 0  -0.03125 -0.9375 0  0 -0.9375 0  0.03125 -0.9375 0  0.0625 -0.9375 0  0.09375 -0.9375 0  0.125 -0.9375 0  0.15625 -0.9375 0  0.1875 -0.9375 0  0.21875 -0.9375 0  0.25 -0.9375 0  0.28125 -0.9375 0  0.3125 -0.9375 0  0.34375 -0.9375 0  0.375 -0.9375 0  0.40625 -0.9375 0  0.4375 -0.9375 0  0.46875 -0.9375 0  0.5 -0.9375 0  0.53125 -0.9375 0  0.5625 -0.9375 0  0.59375 -0.9375 0  0.625 -0.9375 0  0.65625 -0.9375 0  0.6875 -0.9375 0  0.71875 -0.9375 0  0.75 -0.9375 0  0.78125 -0.9375 0  0.8125 -0.9375 0  0.84375 -0.9375 0  0.875 -0.9375 0  0.90625 -0.9375 0  0.9375 -0.9375 0  0.96875 -0.9375 0  1 -0.9375 0  -1 -0.90625 0  -0.96875 -0.90625 0  -0.9375 -0.90625 0  -0.90625 -0.90625 0  -0.875 -0.90625 0  -0.84375 -0.90625 0  -0.8125 -0.90625 0  -0.78125 -0.90625 0  -0.75 -0.90625 0  -0.71875 -0.90625 0  -0.6875 -0.90625 0  -0.65625 -0.90625 0  -0.625 -0.90625 0  -0.59375 -0.90625 0  -0.5625 -0.90625 0  -0.53125 -0.90625 0  -0.5 -0.90625 0  -0.46875 -0.90625 0  -0.4375 -0.90625 0  -0.40625 -0.90625 0  -0.375 -0.90625 0  -0.34375 -0.90625 0  -0.3125 -0.90625 0  -0.28125 -0.90625 0  -0.25 -0.90625 0  -0.21875 -0.90625 0  -0.1875 -0.90625 0  -0.15625 -0.90625 0  -0.125 -0.90625 0  -0.09375 -0.90625 0  -0.0625 -0.90625 0  -0.03125 -0.90625 0  0 -0.90625 0  0.03125 -0.90625 0  0.0625 -0.90625 0  0.09375 -0.90625 0  0.125 -0.90625 0  0.15625 -0.90625 0  0.1875 -0.90625 0  0.21875 -0.90625 0  0.25 -0.90625 0  0.28125 -0.90625 0  0.3125 -0.90625 0  0.34375 -0.90625 0  0.375 -0.90625 0  0.40625 -0.90625 0  0.4375 -0.90625 0  0.46875 -0.90625 0  0.5 -0.90625 0  0.53125 -0.90625 0  0.5625 -0.90625 0  0.59375 -0.90625 0  0.625 -0.90625 0  0.65625 -0.90625 0  0.6875 -0.90625 0  0.71875 -0.90625 0  0.75 -0.90625 0  0.78125 -0.90625 0  0.8125 -0.90625 0  0.84375 -0.90625 0  0.875 -0.90625 0  0.90625 -0.90625 0  0.9375 -0.90625 0  0.96875 -0.90625 0  1 -0.90625 0  -1 -0.875 0  -0.96875 -0.875 0  -0.9375 -0.875 0  -0.90625 -0.875 0  -0.875 -0.875 0  -0.84375 -0.875 0  -0.8125 -0.875 0  -0.78125 -0.875 0  -0.75 -0.875 0  -0.71875 -0.875 0  -0.6875 -0.875 0  -0.65625 -0.875 0  -0.625 -0.875 0  -0.59375 -0.875 0  -0.5625 -0.875 0  -0.53125 -0.875 0  -0.5 -0.875 0  -0.46875 -0.875 0  -0.4375 -0.875 0  -0.40625 -0.875 0  -0.375 -0.875 0  -0.34375 -0.875 0  -0.3125 -0.875 0  -0.28125 -0.875 0  -0.25 -0.875 0  -0.21875 -0.875 0  -0.1875 -0.875 0  -0.15625 -0.875 0  -0.125 -0.875 0  -0.09375 -0.875 0  -0.0625 -0.875 0  -0.03125 -0.875 0  0 -0.875 0  0.03125 -0.875 0  0.0625 -0.875 0  0.09375 -0.875 0  0.125 -0.875 0  0.15625 -0.875 0  0.1875 -0.875 0  0.21875 -0.875 0  0.25 -0.875 0  0.28125 -0.875 0  0.3125 -0.875 0  0.34375 -0.875 0  0.375 -0.875 0  0.40625 -0.875 0  0.4375 -0.875 0  0.46875 -0.875 0  0.5 -0.875 0  0.53125 -0.875 0  0.5625 -0.875 0  0.59375 -0.875 0  0.625 -0.875 0  0.65625 -0.875 0  0.6875 -0.875 0  0.71875 -0.875 0  0.75 -0.875 0  0.78125 -0.875 0  0.8125 -0.875 0  0.84375 -0.875 0  0.875 -0.875 0  0.90625 -0.875 0  0.9375 -0.875 0  0.96875 -0.875 0  1 -0.875 0  -1 -0.84375 0  -0.96875 -0.84375 0  -0.9375 -0.84375 0  -0.90625 -0.84375 0  -0.875 -0.84375 0  -0.84375 -0.84375 0  -0.8125 -0.84375 0  -0.78125 -0.84375 0  -0.75 -0.84375 0  -0.71875 -0.84375 0  -0.6875 -0.84375 0  -0.65625 -0.84375 0  -0.625 -0.84375 0  -0.59375 -0.84375 0  -0.5625 -0.84375 0  -0.53125 -0.84375 0  -0.5 -0.84375 0  -0.46875 -0.84375 0  -0.4375 -0.84375 0  -0.40625 -0.84375 0  -0.375 -0.84375 0  -0.34375 -0.84375 0  -0.3125 -0.84375 0  -0.28125 -0.84375 0  -0.25 -0.84375 0  -0.21875 -0.84375 0  -0.1875 -0.84375 0  -0.15625 -0.84375 0  -0.125 -0.84375 0  -0.09375 -0.84375 0  -0.0625 -0.84375 0  -0.03125 -0.84375 0  0 -0.84375 0  0.03125 -0.84375 0  0.0625 -0.84375 0  0.09375 -0.84375 0  0.125 -0.84375 0  0.15625 -0.84375 0  0.1875 -0.84375 0  0.21875 -0.84375 0  0.25 -0.84375 0  0.28125 -0.84375 0  0.3125 -0.84375 0  0.34375 -0.84375 0  0.375 -0.84375 0  0.40625 -0.84375 0  0.4375 -0.84375 0  0.46875 -0.84375 0  0.5 -0.84375 0  0.53125 -0.84375 0  0.5625 -0.84375 0  0.59375 -0.84375 0  0.625 -0.84375 0  0.65625 -0.84375 0  0.6875 -0.84375 0  0.71875 -0.84375 0  0.75 -0.84375 0  0.78125 -0.84375 0  0.8125 -0.84375 0  0.84375 -0.84375 0  0.875 -0.84375 0  0.90625 -0.84375 0  0.9375 -0.84375 0  0.96875 -0.84375 0  1 -0.84375 0  -1 -0.8125 0  -0.96875 -0.8125 0  -0.9375 -0.8125 0  -0.90625 -0.8125 0  -0.875 -0.8125 0  -0.84375 -0.8125 0  -0.8125 -0.8125 0  -0.78125 -0.8125 0  -0.75 -0.8125 0  -0.71875 -0.8125 0  -0.6875 -0.8125 0  -0.65625 -0.8125 0  -0.625 -0.8125 0  -0.59375 -0.8125 0  -0.5625 -0.8125 0  -0.53125 -0.8125 0  -0.5 -0.8125 0  -0.46875 -0.8125 0  -0.4375 -0.8125 0  -0.40625 -0.8125 0  -0.375 -0.8125 0  -0.34375 -0.8125 0  -0.3125 -0.8125 0  -0.28125 -0.8125 0  -0.25 -0.8125 0  -0.21875 -0.8125 0  -0.1875 -0.8125 0  -0.15625 -0.8125 0  -0.125 -0.8125 0  -0.09375 -0.8125 0  -0.0625 -0.8125 0  -0.03125 -0.8125 0  0 -0.8125 0  0.03125 -0.8125 0  0.0625 -0.8125 0  0.09375 -0.8125 0  0.125 -0.8125 0  0.15625 -0.8125 0  0.1875 -0.8125 0  0.21875 -0.8125 0  0.25 -0.8125 0  0.28125 -0.8125 0  0.3125 -0.8125 0  0.34375 -0.8125 0  0.375 -0.8125 0  0.40625 -0.8125 0  0.4375 -0.8125 0  0.46875 -0.8125 0  0.5 -0.8125 0  0.53125 -0.8125 0  0.5625 -0.8125 0  0.59375 -0.8125 0  0.625 -0.8125 0  0.65625 -0.8125 0  0.6875 -0.8125 0  0.71875 -0.8125 0  0.75 -0.8125 0  0.78125 -0.8125 0  0.8125 -0.8125 0  0.84375 -0.8125 0  0.875 -0.8125 0  0.90625 -0.8125 0  0.9375 -0.8125 0  0.96875 -0.8125 0  1 -0.8125 0  -1 -0.78125 0  -0.96875 -0.78125 0  -0.9375 -0.78125 0  -0.90625 -0.78125 0  -0.875 -0.78125 0  -0.84375 -0.78125 0  -0.8125 -0.78125 0  -0.78125 -0.78125 0  -0.75 -0.78125 0  -0.71875 -0.78125 0  -0.6875 -0.78125 0  -0.65625 -0.78125 0  -0.625 -0.78125 0  -0.59375 -0.78125 0  -0.5625 -0.78125 0  -0.53125 -0.78125 0  -0.5 -0.78125 0  -0.46875 -0.78125 0  -0.4375 -0.78125 0  -0.40625 -0.78125 0  -0.375 -0.78125 0  -0.34375 -0.78125 0  -0.3125 -0.78125 0  -0.28125 -0.78125 0  -0.25 -0.78125 0  -0.21875 -0.78125 0  -0.1875 -0.78125 0  -0.15625 -0.78125 0  -0.125 -0.78125 0  -0.09375 -0.78125 0  -0.0625 -0.78125 0  -0.03125 -0.78125 0  0 -0.78125 0  0.03125 -0.78125 0  0.0625 -0.78125 0  0.09375 -0.78125 0  0.125 -0.78125 0  0.15625 -0.78125 0  0.1875 -0.78125 0  0.21875 -0.78125 0  0.25 -0.78125 0  0.28125 -0.78125 0  0.3125 -0.78125 0  0.34375 -0.78125 0  0.375 -0.78125 0  0.40625 -0.78125 0  0.4375 -0.78125 0  0.46875 -0.78125 0  0.5 -0.78125 0  0.53125 -0.78125 0  0.5625 -0.78125 0  0.59375 -0.78125 0  0.625 -0.78125 0  0.65625 -0.78125 0  0.6875 -0.78125 0  0.71875 -0.78125 0  0.75 -0.78125 0  0.78125 -0.78125 0  0.8125 -0.78125 0  0.84375 -0.78125 0  0.875 -0.78125 0  0.90625 -0.78125 0  0.9375 -0.78125 0  0.96875 -0.78125 0  1 -0.78125 0  -1 -0.75 0  -0.96875 -0.75 0  -0.9375 -0.75 0  -0.90625 -0.75 0  -0.875 -0.75 0  -0.84375 -0.75 0  -0.8125 -0.75 0  -0.78125 -0.75 0  -0.75 -0.75 0  -0.71875 -0.75 0  -0.6875 -0.75 0  -0.65625 -0.75 0  -0.625 -0.75 0  -0.59375 -0.75 0  -0.5625 -0.75 0  -0.53125 -0.75 0  -0.5 -0.75 0  -0.46875 -0.75 0  -0.4375 -0.75 0  -0.40625 -0.75
[...]
<PointData  Scalars="f_15"> 
<DataArray  type="Float64"  Name="f_15"  format="ascii">-4.6277008111874868e-01  -4.5832408244551309e-01  -4.4515694366147418e-01  -4.2377467052588602e-01  -3.9499897180403215e-01  -3.5993568146019594e-01  -3.1993226207857123e-01  -2.7652602263181769e-01  -2.3138504055937426e-01  -1.8624405848693101e-01  -1.4283781904017731e-01  -1.0283439965855265e-01  -6.7771109314716360e-02  -3.8995410592862600e-02  -1.7613137457274428e-02  -4.4459986732355329e-03  0.0000000000000000e+00  -4.4459986732355329e-03  -1.7613137457274452e-02  -3.8995410592862628e-02  -6.7771109314716430e-02  -1.0283439965855268e-01  -1.4283781904017745e-01  -1.8624405848693107e-01  -2.3138504055937434e-01  -2.7652602263181769e-01  -3.1993226207857123e-01  -3.5993568146019611e-01  -3.9499897180403215e-01  -4.2377467052588602e-01  -4.4515694366147418e-01  -4.5832408244551309e-01  -4.6277008111874868e-01  -4.5832408244551309e-01  -4.4515694366147418e-01  -4.2377467052588602e-01  -3.9499897180403215e-01  -3.5993568146019611e-01  -3.1993226207857123e-01  -2.7652602263181769e-01  -2.3138504055937434e-01  -1.8624405848693107e-01  -1.4283781904017745e-01  -1.0283439965855268e-01  -6.7771109314716430e-02  -3.8995410592862628e-02  -1.7613137457274452e-02  -4.4459986732355329e-03  0.0000000000000000e+00  -4.4459986732355329e-03  -1.7613137457274428e-02  -3.8995410592862600e-02  -6.7771109314716360e-02  -1.0283439965855265e-01  -1.4283781904017731e-01  -1.8624405848693101e-01  -2.3138504055937426e-01  -2.7652602263181769e-01  -3.1993226207857123e-01  -3.5993568146019594e-01  -3.9499897180403215e-01  -4.2377467052588602e-01  -4.4515694366147418e-01  -4.5832408244551309e-01  -4.6277008111874868e-01  -4.5832408244551309e-01  -3.3154073741723583e-01  -2.9651194147908649e-01  -2.4234542200033277e-01  -1.7909035726395478e-01  -1.0884390214255404e-01  -3.3929524326795420e-02  4.3481075944064793e-02  1.2126894098862272e-01  1.9735041851776355e-01  2.6969725963285979e-01  3.3638099085895068e-01  3.9562893905007124e-01  4.4588210606708911e-01  4.8584822174920389e-01  5.1454591190308718e-01  5.3133790656930346e-01  5.3595216639879251e-01  5.2849034454171229e-01  5.0942282481091827e-01  4.7956941871502373e-01  4.4006437840088630e-01  3.9230456359589139e-01  3.3788030918621109e-01  2.7849069914244701e-01  2.1584820564551549e-01  1.5158181070799490e-01  8.7150908763400453e-02  2.3782796503855255e-02  -3.7557172213814077e-02  -9.6161079645855921e-02  -1.5154638443333596e-01  -2.0340914890162026e-01  -2.5157629666564113e-01  -2.9596668915632318e-01  -3.3656415860879213e-01  -3.7339999784951650e-01  -4.0653958205443885e-01  -4.3606863944206953e-01  -4.6207731583293349e-01  -4.8464343970496293e-01  -5.0381820271381894e-01  -5.1961803442895349e-01  -5.3202519629187206e-01  -5.4099791803705666e-01  -5.4648865429940796e-01  -5.4846752991014081e-01  -5.4694679672060664e-01  -5.4200203297891314e-01  -5.3378604349122738e-01  -5.2253276136843896e-01  -5.0854962394105574e-01  -4.9219980274819797e-01  -4.7387498853206378e-01  -4.5397116234263829e-01  -4.3285277845503634e-01  -4.1089497487132659e-01  -3.8839389182058620e-01  -3.6614396765889545e-01  -3.4447951466891052e-01  -3.2770103806555229e-01  -3.1302142714682352e-01  -3.2524074745215753e-01  -3.0944142079177589e-01  -4.5832408244551309e-01  -4.4515694366147418e-01  -3.1582225531770491e-01  -3.1694598693363962e-01  -2.8000793746143676e-01  -2.3765016868719274e-01  -1.8912094883679614e-01  -1.3633592666415770e-01  -8.0962619804328798e-02  -2.4664301228922637e-02  3.0904326978241775e-02  8.4114175361368837e-02  1.3340125125224842e-01  1.7731924574433922e-01  2.1459595107625010e-01  2.4418589611232483e-01  2.6531419332224893e-01  2.7750853694646815e-01  2.8061777286631318e-01  2.7481586740545821e-01  2.6059038988701794e-01  2.3871444567446587e-01  2.1020146906545917e-01  1.7624314680015946e-01  1.3813298927504505e-01  9.7181079879607141e-02  5.4629180910944791e-02  1.1577749397850419e-02  -3.1063709807539291e-02  -7.2595418712752824e-02  -1.1251451549953433e-01  -1.5047753081977894e-01  -1.8625045459263556e-01  -2.1965994575994424e-01  -2.5055641092667441e-01  -2.7879419458994625e-01  -3.0422862016206403e-01  -3.2672557023064275e-01  -3.4617784755352959e-01  -3.6252283418432557e-01  -3.7575757821088224e-01  -3.8594882850075052e-01  -3.9323685012341020e-01  -3.9783231698087573e-01  -4.0000622475055048e-01  -4.0007316665758746e-01  -3.9836936654231248e-01  -3.9522767953663918e-01  -3.9095284836776584e-01  -3.8580052075879068e-01  -3.7996347114136131e-01  -3.7356737012575741e-01  -3.6667690943135500e-01  -3.5931222421264947e-01  -3.5147131981566637e-01  -3.4316505460021191e-01  -3.3443625043895453e-01  -3.2546113315920550e-01  -3.1644830935479534e-01  -3.0830035702935898e-01  -3.0114809877199927e-01  -2.9960866488592941e-01  -2.9767021734973220e-01  -3.2310279053401514e-01  -2.9397131684943634e-01  -4.4515694366147418e-01  -4.2377467052588602e-01  -3.1076563101860155e-01  -3.0208589797864727e-01  -2.6150790929483492e-01  -2.1822608983794606e-01  -1.6860599451258307e-01  -1.1485489341427374e-01  -5.8464690029393376e-02  -1.0044053499946317e-03  5.5930960934626191e-02  1.1073525076783315e-01  1.6183237073528281e-01  2.0773342988785851e-01  2.4710139368951614e-01  2.7881465039026732e-01  3.0202242882722896e-01  3.1618704825928606e-01  3.2110964532975622e-01  3.1693727213414147e-01  3.0414999489490263e-01  2.8352741766724338e-01  2.5609521097013804e-01  2.2305423751319645e-01  1.8569757304138712e-01  1.4532365996428503e-01  1.0315584746095895e-01  6.0278601738336060e-02  1.7598034323425427e-02  -2.4170424777464117e-02  -6.4489933598906021e-02  -1.0297296128697385e-01  -1.3934419260534936e-01  -1.7340448185321677e-01  -2.0500219559675842e-01  -2.3401492429018059e-01  -2.6034139177539251e-01  -2.8390123347094198e-01  -3.0463934839494838e-01  -3.2253165481883267e-01  -3.3758980564077362e-01  -3.4986342768839990e-01  -3.5943930800408036e-01  -3.6643767474143840e-01  -3.7100613674145805e-01  -3.7331216172826914e-01  -3.7353508532281327e-01  -3.7185871394662223e-01  -3.6846542944741378e-01  -3.6353253652181045e-01  -3.5723119530676317e-01  -3.4972811213385696e-01  -3.4118953478417052e-01  -3.3178831127879421e-01  -3.2171092364474341e-01  -3.1117663349708113e-01  -3.0043480698905695e-01  -2.8986705719534916e-01  -2.7981659785007107e-01  -2.7137894847833516e-01  -2.6435618157450114e-01  -2.6391230720639619e-01  -2.6028238972213508e-01  -2.8743497271201607e-01  -2.3476888390112402e-01  -4.2377467052588602e-01  -3.9499897180403215e-01  -3.1959041310763664e-01  -3.0006073112964143e-01  -2.6118680170282199e-01  -2.1989984727513087e-01  -1.7390585182767893e-01  -1.2508784654840957e-01  -7.4540926720697731e-02  -2.3541803732238669e-02  2.6619263890596167e-02  7.4648522794031252e-02  1.1928474938674277e-01  1.5934426926393222e-01  1.9377157277398219e-01  2.2168960527955248e-01  2.4244391058258830e-01  2.5563573250242283e-01  2.6114039105493508e-01  2.5910869331971648e-01  2.4995050515046113e-01  2.3430124509899003e-01  2.1297371710614740e-01  1.8689960718991308e-01  1.5706651137501690e-01  1.2445734102576728e-01  8.9998660327149607e-02  5.4523020041202214e-02  1.8747743396234626e-02  -1.6730270967773062e-02  -5.1426734081075211e-02  -8.4953692278571150e-02  -1.1699976330642087e-01  -1.4731121900104976e-01  -1.7567692249083877e-01  -2.0191855968985137e-01  -2.2588610956688485e-01  -2.4745748379288562e-01  -2.6654068915993184e-01  -2.8307687777410984e-01  -2.9704289907753878e-01  -3.0845247242610169e-01  -3.1735549235903887e-01  -3.2383540097273533e-01  -3.2800477842761422e-01  -3.2999958945715885e-01  -3.2997263915882558e-01  -3.2808701733226314e-01  -3.2451035168095327e-01  -3.1941075652099343e-01  -3.1295515220154391e-01  -3.0531053965423022e-01  -2.9664806431894786e-01  -2.8715100820481959e-01  -2.7702269357849946e-01  -2.6650867664941025e-01  -2.5588868848604429e-01  -2.4559450654465761e-01  -2.3596843676551549e-01  -2.2821886396436256e-01  -2.2172363830639361e-01  -2.2236454822925489e-01  -2.1650562459379180e-01  -2.4600211280965004e-01  -1.7242073973375058e-01  -3.9499897180403215e-01  -3.5993568146019594e-01  -3.3617477263805851e-01  -3.0302842631786236e-01  -2.6318682433087776e-01  -2.2109822471002383e-01  -1.7595642274977213e-01  -1.2886620781955629e-01  -8.0682314506229952e-02  -3.2449082130023649e-02  1.4762908316875474e-02  5.9862046275946899e-02  1.0177413244342053e-01  1.3948329560283468e-01  1.7207705385076683e-01  1.9879120241765325e-01  2.1904988727620647e-01  2.3249627753307406e-01  2.3901021258103702e-01  2.3871042706379128e-01  2.3194069022369093e-01  2.1924083299146696e-01  2.0130548345377938e-01  1.7893471122843943e-01  1.5298185840564671e-01  1.2430396735777692e-01  9.3719657835053621e-02  6.1977825606724539e-02  2.9738702698070912e-02  -2.4331805490054948e-03  -3.4066165603205904e-02  -6.4771828519621863e-02  -9.4231895110399089e-02  -1.2218472758949896e-01  -1.4841364562449957e-01  -1.7273831992943417e-01  -1.9500956645340417e-01  -2.1510704578941001e-01  -2.3293899826362327e-01  -2.4844292631411199e-01  -2.6158633124319286e-01  -2.7236676325087300e-01  -2.8081084631362624e-01  -2.8697212171133873e-01  -2.9092790899004273e-01  -2.9277544989781201e-01  -2.9262786117524098e-01  -2.9061037863674716e-01  -2.8685750476740829e-01  -2.8151148989893843e-01  -2.7472253539866531e-01  -2.6665095353356560e-01  -2.5747103065690935e-01  -2.4737792980049969e-01  -2.3659306485604548e-01  -2.2538548021326843e-01  -2.1405390068587810e-01  -2.0306128183539690e-01  -1.9271432128665347e-01  -1.8432554905791351e-01  -1.7678326688526849e-01  -1.7689405799823424e-01  -1.6692020272908556e-01  -1.9799917621028129e-01  -1.0224803739836807e-01  -3.5993568146019594e-01  -3.1993226207857123e-01  -3.5649524167683116e-01  -3.0955382697426231e-01  -2.6942074821426665e-01  -2.2690207311994240e-01  -1.8276651790963244e-01  -1.3756788821725502e-01  -9.1996596596152905e-02  -4.6870628075482389e-02  -3.0551139620515829e-03  3.8561392248954315e-02  7.7106859783327458e-02  1.1176196962481992e-01  1.4179723750749712e-01  1.6660806433771580e-01  1.8574476202119772e-01  1.9893463892930857e-01  2.0609369104369618e-01  2.0732654868706998e-01  2.0291445766232274e-01  1.9329249422985395e-01  1.7901828999866393e-01  1.6073553077647101e-01  1.3913584816379582e-01  1.1492273304222154e-01  8.8780454682788015e-02  6.1350086621451021e-02  3.3213552675467085e-02  4.8855231500373178e-03  -2.3187960466898055e-02  -5.0625854523575667e-02  -7.7105443295657008e-02  -1.0235451930600971e-01  -1.2614390455016236e-01  -1.4828131745325304e-01  -1.6860697632835922e-01  -1.8699091124119110e-01  -2.0333154797483435e-01  -2.1755505655436022e-01  -2.2961486529162844e-01  -2.3949095558043973e-01  -2.4718860907439608e-01  -2.5273657498165442e-01  -2.5618467239354292e-01  -2.5760110191737451e-01  -2.5706970772182519e-01  -2.5468762078131413e-01  -2.5056358149975666e-01  -2.4481735181613948e-01  -2.3758036543549471e-01  -2.2899795662935865e-01  -2.1923275462023287e-01  -2.0847101862706230e-01  -1.9692639089385477e-01  -1.8486198662376613e-01  -1.7256347631251789e-01  -1.6049485180979300e-01  -1.4889329640853993e-01  -1.3917344437360651e-01  -1.2968079577862612e-01  -1.2834370204606654e-01  -1.1310679779641881e-01  -1.4548811149400342e-01  -2.7624414259656029e-02  -3.1993226207857123e-01  -2.7652602263181769e-01  -3.7825869052453448e-01  -3.1786264082668847e-01  -2.7796696183513342e-01  -2.3493328438661848e-01  -1.9150807285063001e-01  -1.4773059028853699e-01  -1.0414560737242000e-01  -6.1382755385635888e-02  -2.0138040837388294e-02  1.8867000566265731e-02  5.4920969303426673e-02  8.7355151056568048e-02  1.1557513232530971e-01  1.3908946992619942e-01  1.5753378067626231e-01  1.7068824465991411e-01  1.7848690178356744e-01  1.8101777372796604e-01  1.7851374809083131e-01  1.7133511294206172e-01  1.5994549917220963e-01  1.4488363227727119e-01  1.2673360058179092e-01  1.0609630226557948e-01  8.3564326175745524e-02  5.9701874160577553e-02  3.5030525809221121e-02  1.0020861985083843e-02  -1.4910724303952853e-02  -3.9401160237346446e-02  -6.3137127787300851e-02  -8.5850130160428667e-02  -1.0731130971988548e-01  -1.2732679783849452e-01  -1.4573400760372687e-01  -1.6239894691578058e-01  -1.7721438774614054e-01  -1.9009858976090546e-01  -2.0099425351656180e-01  -2.0986741982043458e-01  -2.1670613951447604e-01  -2.2151884606539157e-01  -2.2433248451831952e-01  -2.2519053869162142e-01  -2.2415117841049237e-01  -2.2128576454242338e-01  -2.1667797493270033e-01  -2.1042375957551068e-01  -2.0263227559210792e-01  -1.9342802216782290e-01  -1.8295380121300744e-01  -1.7137645225274256e-01  -1.5888914164685916e-01  -1.4573433179815948e-01  -1.3216811520931060e-01  -1.1863957857757665e-01  -1.0529679610628523e-01  -9.3659629893348251e-02  -8.1491281483888511e-02  -7.8002271834877762e-02  -5.6652989290516861e-02  -9.0172120589340210e-02  4.9474026372935360e-02  -2.7652602263181769e-01  -2.3138504055937426e-01  -4.0033899758363151e-01  -3.2688134050044498e-01  -2.8788077879872270e-01  -2.4452153662180856e-01  -2.0182258904597841e-01  -1.5931885322726419e-01  -1.1747772194410015e-01  -7.6780959439413279e-02  -3.7785245706309221e-02  -1.0717959684492350e-03  3.2784503133315678e-02  6.3244672792275039e-02  8.9832328429764199e-02  1.1215693159107021e-01  1.2993263558116763e-01  1.4299150362992058e-01  1.5129019271428812e-01  1.5490957660887278e-01  1.5404746937716585e-01  1.4900515395854655e-01  1.4016908355824947e-01  1.2798943259669796e-01  1.1295745682137308e-01  9.5583483891526627e-02  7.6377173183280564e-02  5.5831179726082703e-02  3.4408897898539161e-02  1.2536381109445643e-02  -9.4018872397649833e-03  -3.1064060830366263e-02  -5.2149696974053382e-02  -7.2397113269240282e-02  -9.1580134768489391e-02  -1.0950481839180591e-01  -1.2600654781704834e-01  -1.4094762800520488e-01  -1.5421538642087809e-01  -1.6572062400575213e-01  -1.7539627497420870e-01  -1.8319608404841212e-01  -1.8909322955479979e-01  -1.9307881804475363e-01  -1.9516032785555215e-01  -1.9536005924656674e-01  -1.9371377703334056e-01  -1.9026967974130585e-01  -1.8508789369300588e-01  -1.7824061673621469e-01  -1.6981302794804506e-01  -1.5990516432460888e-01  -1.4863438876848337e-01  -1.3614060621198962e-01  -1.2258731700701604e-01  -1.0818569164200433e-01  -9.3150780938885638e-02  -7.7905201509746891e-02  -6.2495511336750263e-02  -4.8546573815460431e-02  -3.3217646253875861e-02  -2.7108759205099885e-02  8.6142511285190065e-04  -3.3728135990555699e-02  1.2692909660462898e-01  -2.3138504055937426e-01  -1.8624405848693101e-01  -4.2220029513489343e-01  -3.3598220007555729e-01  -2.9846427011214494e-01  -2.5492417255028782e-01  -2.1293441653239267e-01  -1.7153576196398335e-01  -1.3117149852056600e-01  -9.2203972990845998e-02  -5.5078611499446574e-02  -2.0261816154506850e-02  1.1783922192434626e-02  4.0626052114112549e-02  6.5884241494192183e-02  8.7249370209760646e-02  1.0449851410260763e-01  1.1750526451556449e-01  1.2624480966368848e-01  1.3079357232728908e-01  1.3132352492525998e-01  1.2809181697312330e-01  1.2142665434067185e-01  1.1171073209222443e-01  9.9363579069876737e-02  8.4824223110168476e-02  6.8535337791196874e-02  5.0929797115512522e-02  3.2420148483755101e-02  1.3391188197771959e-02  -5.8045475139591376e-03  -2.4848790083142523e-02  -4.3457621650751455e-02  -6.1380251023114285e-02  -7.8397046516071947e-02  -9.4317293430619856e-02  -1.0897697362683370e-01  -1.2223675370414504e-01  -1.3398020866152749e-01  -1.4411226695040630e-01  -1.5255777515023183e-01  -1.5926012965010347e-01  -1.6417989106962858e-01  -1.6729339950541675e-01  -1.6859138426652295e-01  -1.6807767880234772e-01  -1.6576810551809318e-01  -1.6168968001374490e-01  -1.5588021759276913e-01  -1.4838848505470570e-01  -1.3927492930605076e-01  -1.2861324547288502e-01  -1.1649233966441309e-01  -1.0302107671950472e-01  -8.8328294546720879e-02  -7.2587858758840176e-02  -5.5967682098808078e-02  -3.8856236892355615e-02  -2.1193571160894951e-02  -4.7032244065602869e-03  1.4055756412436829e-02  2.3053533081191624e-02  5.7822124491901328e-02  2.2175361847702149e-02  2.0267083812018297e-01  -1.8624405848693101e-01  -1.4283781904017731e-01  -4.4351585062438093e-01  -3.4480921930599151e-01  -3.0924677471395245e-01  -2.6563473719531799e-01  -2.2435145506860488e-01  -1.8393142332720547e-01  -1.4483783556473578e-01  -1.0733986772323921e-01  -7.1796879088193211e-02  -3.8581913095261919e-02  -8.0647604702337450e-03  1.9410555147313491e-02  4.3544071960520687e-02  6.4095270273242008e-02  8.0894933658588755e-02  9.3853116329806183e-02  1.0296293912849530e-01  1.0830011449190456e-01  1.1001841525209199e-01  1.0834155076356107e-01  1.0355221459366835e-01  9.5979214653391196e-02  8.5983724414070831e-02  7.3945633442904474e-02  6.0250894705023317e-02  4.5280527652257027e-02  2.9401723723135275e-02  1.2961209958197837e-02  -3.7191807920506801e-03  -2.0344990782695908e-02  -3.6650033019246769e-02  -5.2396120091199504e-02  -6.7372030577855180e-02  -8.1392051983728980e-02  -9.4294360902562491e-02  -1.0593939325457842e-01  -1.1620829182808823e-01  -1.2500143680763531e-01  -1.3223705269199296e-01  -1.3784984634800970e-01  -1.4178967391555916e-01  -1.4402021793123057e-01  -1.4451772542000685e-01  -1.4326983572079455e-01  -1.4027459312681820e-01  -1.3553970507896801e-01  -1.2908214663617254e-01  -1.2092817901059132e-01  -1.1111384986364219e-01  -9.9686192133413093e-02  -8.6704743162696718e-02  -7.2245807054430886e-02  -5.6401665945432326e-02  -3.9306218115595648e-02  -2.1078241351628998e-02  -2.0670007641781689e-03  1.7891684574895837e-02  3.6989769317476148e-02  5.9233125028793618e-02  7.1201189664335418e-02  1.1261032951681103e-01  7.5897945548447213e-02  2.7467606009825818e-01  -1.4283781904017731e-01  -1.0283439965855265e-01  -4.6398566858096979e-01  -3.5317078021970566e-01  -3.1989080322714586e-01  -2.7626550767209457e-01  -2.3567059317983072e-01  -1.9611177603117039e-01  -1.5810840637649831e-01  -1.2185594723046775e-01  -8.7647589375833085e-02  -5.5780577237640266e-02  -2.6548324326806632e-02  -2.2120322342119404e-04  2.2967991315011264e-02  4.2836296544449225e-02  5.9259860269120238e-02  7.2180069949538267e-02  8.1606362126246390e-02  8.7615712993440120e-02  9.0348997339260675e-02  9.0004602948713236e-02  8.6829862515037659e-02  8.1110995047365922e-02  7.3162302965542561e-02  6.3315368179934606e-02  5.1908895112369902e-02  3.9279726004276684e-02  2.5755362935390883e-02  1.1648170165168443e-02  -2.7487586223876063e-03  -1.7164203783658474e-02  -3.1350136584601764e-02  -4.5082026329359280e-02  -5.8158427801080645e-02  -7.0400098379707468e-02  -8.1648850335574286e-02  -9.1766275791931515e-02  -1.0063243281352974e-01  -1.0814453105026828e-01  -1.1421562995856643e-01  -1.1877335029841231e-01  -1.2175859820513608e-01  -1.2312431734439115e-01  -1.2283429019403908e-01  -1.2086203567259925e-01  -1.1718985047237648e-01  -1.1180805848563602e-01  -1.0471452463437102e-01  -9.5914509461281577e-02  -8.5420906941754082e-02  -7.3255104043483787e-02  -5.9448089085233247e-02  -4.4044256937424801e-02  -2.7100030335084947e-02  -8.7095567796588169e-03  1.1055900927416977e-02  3.1888960389007334e-02  5.4048274570313949e-02  7.5663403705819837e-02  1.0123489379545279e-01  1.1607780812259076e-01  1.6364106463657094e-01  1.2586261222061035e-01  3.4101721958313957e-01  -1.0283439965855265e-01  -6.7771109314716360e-02  -4.8326915711811536e-01  -3.6097461752411447e-01  -3.3013660165162279e-01  -2.8651317034067475e-01  -2.4657186251730170e-01  -2.0776727162339431e-01  -1.7070147683238049e-01  -1.3550952532738800e-01  -1.0243393103343014e-01  -7.1710043186258510e-02  -4.3567945662167720e-02  -1.8216235857271203e-02  4.1689907513501245e-03  2.3453675830399326e-02  3.9552897577557297e-02  5.2435488399742200e-02  6.2126043953911060e-02  6.8704367432828761e-02  7.2302500686020316e-02  7.3099661588812384e-02  7.1315501539239212e-02  6.7202206645178730e-02  6.1035990175619781e-02  5.3108525477225235e-02  4.3718806572163128e-02  3.316582