<?xml version="1.0"?>
<VTKFile type="UnstructuredGrid"  version="0.1"  >
<UnstructuredGrid>
<Piece  NumberOfPoints="4225" NumberOfCells="8192">
<Points>
<DataArray  type="Float64"  NumberOfComponents="3"  format="ascii">-1 -1 0  -0.96875 -1 0  -0.9375 -1 0  -0.90625 -1 0  -0.875 -1 0  -0.84375 -1 0  -0.8125 -1 0  -0.78125 -1 0  -0.75 -1 0  -0.71875 -1 0  -0.6875 -1 0  -0.65625 -1 0  -0.625 -1 0  -0.59375 -1 0  -0.5625 -1 0  -0.53125 -1 0  -0.5 -1 0  -0.46875 -1 0  -0.4375 -1 0  -0.40625 -1 0  -0.375 -1 0  -0.34375 -1 0  -0.3125 -1 0  -0.28125 -1 0  -0.25 -1 0  -0.21875 -1 0  -0.1875 -1 0  -0.15625 -1 0  -0.125 -1 0  -0.09375 -1 0  -0.0625 -1 0  -0.03125 -1 0  0 -1 0  0.03125 -1 0  0.0625 -1 0  0.09375 -1 0  0.125 -1 0  0.15625 -1 0  0.1875 -1 0  0.21875 -1 0  0.25 -1 0  0.28125 -1 0  0.3125 -1 0  0.34375 -1 0  0.375 -1 0  0.40625 -1 0  0.4375 -1 0  0.46875 -1 0  0.5 -1 0  0.53125 -1 0  0.5625 -1 0  0.59375 -1 0  0.625 -1 0  0.65625 -1 0  0.6875 -1 0  0.71875 -1 0  0.75 -1 0  0.78125 -1 0  0.8125 -1 0  0.84375 -1 0  0.875 -1 0  0.90625 -1 0  0.9375 -1 0  0.96875 -1 0  1 -1 0  -1 -0.96875 0  -0.96875 -0.96875 0  -0.9375 -0.96875 0  -0.90625 -0.96875 0  -0.875 -0.96875 0  -0.84375 -0.96875 0  -0.8125 -0.96875 0  -0.78125 -0.96875 0  -0.75 -0.96875 0  -0.71875 -0.96875 0  -0.6875 -0.96875 0  -0.65625 -0.96875 0  -0.625 -0.96875 0  -0.59375 -0.96875 0  -0.5625 -0.96875 0  -0.53125 -0.96875 0  -0.5 -0.96875 0  -0.46875 -0.96875 0  -0.4375 -0.96875 0  -0.40625 -0.96875 0  -0.375 -0.96875 0  -0.34375 -0.96875 0  -0.3125 -0.96875 0  -0.28125 -0.96875 0  -0.25 -0.96875 0  -0.21875 -0.96875 0  -0.1875 -0.96875 0  -0.15625 -0.96875 0  -0.125 -0.96875 0  -0.09375 -0.96875 0  -0.0625 -0.96875 0  -0.03125 -0.96875 0  0 -0.96875 0  0.03125 -0.96875 0  0.0625 -0.96875 0  0.09375 -0.96875 0  0.125 -0.96875 0  0.15625 -0.96875 0  0.1875 -0.96875 0  0.21875 -0.96875 0  0.25 -0.96875 0  0.28125 -0.96875 0  0.3125 -0.96875 0  0.34375 -0.96875 0  0.375 -0.96875 0  0.40625 -0.96875 0  0.4375 -0.96875 0  0.46875 -0.96875 0  0.5 -0.96875 0  0.53125 -0.96875 0  0.5625 -0.96875 0  0.59375 -0.96875 0  0.625 -0.96875 0  0.65625 -0.96875 0  0.6875 -0.96875 0  0.71875 -0.96875 0  0.75 -0.96875 0  0.78125 -0.96875 0  0.8125 -0.96875 0  0.84375 -0.96875 0  0.875 -0.96875 0  0.90625 -0.96875 0  0.9375 -0.96875 0  0.96875 -0.96875 0  1 -0.96875 0  -1 -0.9375 0  -0.96875 -0.9375 0  -0.9375 -0.9375 0  -0.90625 -0.9375 0  -0.875 -0.9375 0  -0.84375 -0.9375 0  -0.8125 -0.9375 0  -0.78125 -0.9375 0  -0.75 -0.9375 0  -0.71875 -0.9375 0  -0.6875 -0.9375 0  -0.65625 -0.9375 0  -0.625 -0.9375 0  -0.59375 -0.9375 0  -0.5625 -0.9375 0  -0.53125 -0.9375 0  -0.5 -0.9375 0  -0.46875 -0.9375 0  -0.4375 -0.9375 0  -0.40625 -0.9375 0  -0.375 -0.9375 0  -0.34375 -0.9375 0  -0.3125 -0.9375 0  -0.28125 -0.9375 0  -0.25 -0.9375 0  -0.21875 -0.9375 0  -0.1875 -0.9375 0  -0.15625 -0.9375 0  -0.125 -0.9375 0  -0.09375 -0.9375 0  -0.0625 -0.9375 0  -0.03125 -0.9375 0  0 -0.9375 0  0.03125 -0.9375 0  0.0625 -0.9375 0  0.09375 -0.9375 0  0.125 -0.9375 0  0.15625 -0.9375 0  0.1875 -0.9375 0  0.21875 -0.9375 0  0.25 -0.9375 0  0.28125 -0.9375 0  0.3125 -0.9375 0  0.34375 -0.9375 0  0.375 -0.9375 0  0.40625 -0.9375 0  0.4375 -0.9375 0  0.46875 -0.9375 0  0.5 -0.9375 0  0.53125 -0.9375 0  0.5625 -0.9375 0  0.59375 -0.9375 0  0.625 -0.9375 0  0.65625 -0.9375 0  0.6875 -0.9375 0  0.71875 -0.9375 0  0.75 -0.9375 0  0.78125 -0.9375 0  0.8125 -0.9375 0  0.84375 -0.9375 0  0.875 -0.9375 0  0.90625 -0.9375 0  0.9375 -0.9375 0  0.96875 -0.9375 0  1 -0.9375 0  -1 -0.90625 0  -0.96875 -0.90625 0  -0.9375 -0.90625 0  -0.90625 -0.90625 0  -0.875 -0.90625 0  -0.84375 -0.90625 0  -0.8125 -0.90625 0  -0.78125 -0.90625 0  -0.75 -0.90625 0  -0.71875 -0.90625 0  -0.6875 -0.90625 0  -0.65625 -0.90625 0  -0.625 -0.90625 0  -0.59375 -0.90625 0  -0.5625 -0.90625 0  -0.53125 -0.90625 0  -0.5 -0.90625 0  -0.46875 -0.90625 0  -0.4375 -0.90625 0  -0.40625 -0.90625 0  -0.375 -0.90625 0  -0.34375 -0.90625 0  -0.3125 -0.90625 0  -0.28125 -0.90625 0  -0.25 -0.90625 0  -0.21875 -0.90625 0  -0.1875 -0.90625 0  -0.15625 -0.90625 0  -0.125 -0.90625 0  -0.09375 -0.90625 0  -0.0625 -0.90625 0  -0.03125 -0.90625 0  0 -0.90625 0  0.03125 -0.90625 0  0.0625 -0.90625 0  0.09375 -0.90625 0  0.125 -0.90625 0  0.15625 -0.90625 0  0.1875 -0.90625 0  0.21875 -0.90625 0  0.25 -0.90625 0  0.28125 -0.90625 0  0.3125 -0.90625 0  0.34375 -0.90625 0  0.375 -0.90625 0  0.40625 -0.90625 0  0.4375 -0.90625 0  0.46875 -0.90625 0  0.5 -0.90625 0  0.53125 -0.90625 0  0.5625 -0.90625 0  0.59375 -0.90625 0  0.625 -0.90625 0  0.65625 -0.90625 0  0.6875 -0.90625 0  0.71875 -0.90625 0  0.75 -0.90625 0  0.78125 -0.90625 0  0.8125 -0.90625 0  0.84375 -0.90625 0  0.875 -0.90625 0  0.90625 -0.90625 0  0.9375 -0.90625 0  0.96875 -0.90625 0  1 -0.90625 0  -1 -0.875 0  -0.96875 -0.875 0  -0.9375 -0.875 0  -0.90625 -0.875 0  -0.875 -0.875 0  -0.84375 -0.875 0  -0.8125 -0.875 0  -0.78125 -0.875 0  -0.75 -0.875 0  -0.71875 -0.875 0  -0.6875 -0.875 0  -0.65625 -0.875 0  -0.625 -0.875 0  -0.59375 -0.875 0  -0.5625 -0.875 0  -0.53125 -0.875 0  -0.5 -0.875 0  -0.46875 -0.875 0  -0.4375 -0.875 0  -0.40625 -0.875 0  -0.375 -0.875 0  -0.34375 -0.875 0  -0.3125 -0.875 0  -0.28125 -0.875 0  -0.25 -0.875 0  -0.21875 -0.875 0  -0.1875 -0.875 0  -0.15625 -0.875 0  -0.125 -0.875 0  -0.09375 -0.875 0  -0.0625 -0.875 0  -0.03125 -0.875 0  0 -0.875 0  0.03125 -0.875 0  0.0625 -0.875 0  0.09375 -0.875 0  0.125 -0.875 0  0.15625 -0.875 0  0.1875 -0.875 0  0.21875 -0.875 0  0.25 -0.875 0  0.28125 -0.875 0  0.3125 -0.875 0  0.34375 -0.875 0  0.375 -0.875 0  0.40625 -0.875 0  0.4375 -0.875 0  0.46875 -0.875 0  0.5 -0.875 0  0.53125 -0.875 0  0.5625 -0.875 0  0.59375 -0.875 0  0.625 -0.875 0  0.65625 -0.875 0  0.6875 -0.875 0  0.71875 -0.875 0  0.75 -0.875 0  0.78125 -0.875 0  0.8125 -0.875 0  0.84375 -0.875 0  0.875 -0.875 0  0.90625 -0.875 0  0.9375 -0.875 0  0.96875 -0.875 0  1 -0.875 0  -1 -0.84375 0  -0.96875 -0.84375 0  -0.9375 -0.84375 0  -0.90625 -0.84375 0  -0.875 -0.84375 0  -0.84375 -0.84375 0  -0.8125 -0.84375 0  -0.78125 -0.84375 0  -0.75 -0.84375 0  -0.71875 -0.84375 0  -0.6875 -0.84375 0  -0.65625 -0.84375 0  -0.625 -0.84375 0  -0.59375 -0.84375 0  -0.5625 -0.84375 0  -0.53125 -0.84375 0  -0.5 -0.84375 0  -0.46875 -0.84375 0  -0.4375 -0.84375 0  -0.40625 -0.84375 0  -0.375 -0.84375 0  -0.34375 -0.84375 0  -0.3125 -0.84375 0  -0.28125 -0.84375 0  -0.25 -0.84375 0  -0.21875 -0.84375 0  -0.1875 -0.84375 0  -0.15625 -0.84375 0  -0.125 -0.84375 0  -0.09375 -0.84375 0  -0.0625 -0.84375 0  -0.03125 -0.84375 0  0 -0.84375 0  0.03125 -0.84375 0  0.0625 -0.84375 0  0.09375 -0.84375 0  0.125 -0.84375 0  0.15625 -0.84375 0  0.1875 -0.84375 0  0.21875 -0.84375 0  0.25 -0.84375 0  0.28125 -0.84375 0  0.3125 -0.84375 0  0.34375 -0.84375 0  0.375 -0.84375 0  0.40625 -0.84375 0  0.4375 -0.84375 0  0.46875 -0.84375 0  0.5 -0.84375 0  0.53125 -0.84375 0  0.5625 -0.84375 0  0.59375 -0.84375 0  0.625 -0.84375 0  0.65625 -0.84375 0  0.6875 -0.84375 0  0.71875 -0.84375 0  0.75 -0.84375 0  0.78125 -0.84375 0  0.8125 -0.84375 0  0.84375 -0.84375 0  0.875 -0.84375 0  0.90625 -0.84375 0  0.9375 -0.84375 0  0.96875 -0.84375 0  1 -0.84375 0  -1 -0.8125 0  -0.96875 -0.8125 0  -0.9375 -0.8125 0  -0.90625 -0.8125 0  -0.875 -0.8125 0  -0.84375 -0.8125 0  -0.8125 -0.8125 0  -0.78125 -0.8125 0  -0.75 -0.8125 0  -0.71875 -0.8125 0  -0.6875 -0.8125 0  -0.65625 -0.8125 0  -0.625 -0.8125 0  -0.59375 -0.8125 0  -0.5625 -0.8125 0  -0.53125 -0.8125 0  -0.5 -0.8125 0  -0.46875 -0.8125 0  -0.4375 -0.8125 0  -0.40625 -0.8125 0  -0.375 -0.8125 0  -0.34375 -0.8125 0  -0.3125 -0.8125 0  -0.28125 -0.8125 0  -0.25 -0.8125 0  -0.21875 -0.8125 0  -0.1875 -0.8125 0  -0.15625 -0.8125 0  -0.125 -0.8125 0  -0.09375 -0.8125 0  -0.0625 -0.8125 0  -0.03125 -0.8125 0  0 -0.8125 0  0.03125 -0.8125 0  0.0625 -0.8125 0  0.09375 -0.8125 0  0.125 -0.8125 0  0.15625 -0.8125 0  0.1875 -0.8125 0  0.21875 -0.8125 0  0.25 -0.8125 0  0.28125 -0.8125 0  0.3125 -0.8125 0  0.34375 -0.8125 0  0.375 -0.8125 0  0.40625 -0.8125 0  0.4375 -0.8125 0  0.46875 -0.8125 0  0.5 -0.8125 0  0.53125 -0.8125 0  0.5625 -0.8125 0  0.59375 -0.8125 0  0.625 -0.8125 0  0.65625 -0.8125 0  0.6875 -0.8125 0  0.71875 -0.8125 0  0.75 -0.8125 0  0.78125 -0.8125 0  0.8125 -0.8125 0  0.84375 -0.8125 0  0.875 -0.8125 0  0.90625 -0.8125 0  0.9375 -0.8125 0  0.96875 -0.8125 0  1 -0.8125 0  -1 -0.78125 0  -0.96875 -0.78125 0  -0.9375 -0.78125 0  -0.90625 -0.78125 0  -0.875 -0.78125 0  -0.84375 -0.78125 0  -0.8125 -0.78125 0  -0.78125 -0.78125 0  -0.75 -0.78125 0  -0.71875 -0.78125 0  -0.6875 -0.78125 0  -0.65625 -0.78125 0  -0.625 -0.78125 0  -0.59375 -0.78125 0  -0.5625 -0.78125 0  -0.53125 -0.78125 0  -0.5 -0.78125 0  -0.46875 -0.78125 0  -0.4375 -0.78125 0  -0.40625 -0.78125 0  -0.375 -0.78125 0  -0.34375 -0.78125 0  -0.3125 -0.78125 0  -0.28125 -0.78125 0  -0.25 -0.78125 0  -0.21875 -0.78125 0  -0.1875 -0.78125 0  -0.15625 -0.78125 0  -0.125 -0.78125 0  -0.09375 -0.78125 0  -0.0625 -0.78125 0  -0.03125 -0.78125 0  0 -0.78125 0  0.03125 -0.78125 0  0.0625 -0.78125 0  0.09375 -0.78125 0  0.125 -0.78125 0  0.15625 -0.78125 0  0.1875 -0.78125 0  0.21875 -0.78125 0  0.25 -0.78125 0  0.28125 -0.78125 0  0.3125 -0.78125 0  0.34375 -0.78125 0  0.375 -0.78125 0  0.40625 -0.78125 0  0.4375 -0.78125 0  0.46875 -0.78125 0  0.5 -0.78125 0  0.53125 -0.78125 0  0.5625 -0.78125 0  0.59375 -0.78125 0  0.625 -0.78125 0  0.65625 -0.78125 0  0.6875 -0.78125 0  0.71875 -0.78125 0  0.75 -0.78125 0  0.78125 -0.78125 0  0.8125 -0.78125 0  0.84375 -0.78125 0  0.875 -0.78125 0  0.90625 -0.78125 0  0.9375 -0.78125 0  0.96875 -0.78125 0  1 -0.78125 0  -1 -0.75 0  -0.96875 -0.75 0  -0.9375 -0.75 0  -0.90625 -0.75 0  -0.875 -0.75 0  -0.84375 -0.75 0  -0.8125 -0.75 0  -0.78125 -0.75 0  -0.75 -0.75 0  -0.71875 -0.75 0  -0.6875 -0.75 0  -0.65625 -0.75 0  -0.625 -0.75 0  -0.59375 -0.75 0  -0.5625 -0.75 0  -0.53125 -0.75 0  -0.5 -0.75 0  -0.46875 -0.75 0  -0.4375 -0.75 0  -0.40625 -0.75
[...]
<PointData  Scalars="f_15"> 
<DataArray  type="Float64"  Name="f_15"  format="ascii">-4.8254657651600646e-01  -4.7791057793593833e-01  -4.6418074102126805e-01  -4.4188469570484540e-01  -4.1187926650441387e-01  -3.7531754523690758e-01  -3.3360457834658774e-01  -2.8834337175814717e-01  -2.4127328825800318e-01  -1.9420320475785910e-01  -1.4894199816941869e-01  -1.0722903127909872e-01  -7.0667310011592488e-02  -4.0661880811160983e-02  -1.8365835494738251e-02  -4.6359985800680879e-03  0.0000000000000000e+00  -4.6359985800680879e-03  -1.8365835494738279e-02  -4.0661880811161011e-02  -7.0667310011592530e-02  -1.0722903127909877e-01  -1.4894199816941883e-01  -1.9420320475785921e-01  -2.4127328825800323e-01  -2.8834337175814717e-01  -3.3360457834658769e-01  -3.7531754523690775e-01  -4.1187926650441387e-01  -4.4188469570484540e-01  -4.6418074102126811e-01  -4.7791057793593833e-01  -4.8254657651600646e-01  -4.7791057793593833e-01  -4.6418074102126811e-01  -4.4188469570484540e-01  -4.1187926650441387e-01  -3.7531754523690775e-01  -3.3360457834658769e-01  -2.8834337175814717e-01  -2.4127328825800323e-01  -1.9420320475785921e-01  -1.4894199816941883e-01  -1.0722903127909877e-01  -7.0667310011592530e-02  -4.0661880811161011e-02  -1.8365835494738279e-02  -4.6359985800680879e-03  0.0000000000000000e+00  -4.6359985800680879e-03  -1.8365835494738251e-02  -4.0661880811160983e-02  -7.0667310011592488e-02  -1.0722903127909872e-01  -1.4894199816941869e-01  -1.9420320475785910e-01  -2.4127328825800318e-01  -2.8834337175814717e-01  -3.3360457834658774e-01  -3.7531754523690758e-01  -4.1187926650441387e-01  -4.4188469570484540e-01  -4.6418074102126805e-01  -4.7791057793593833e-01  -4.8254657651600646e-01  -4.7791057793593833e-01  -3.6631029166877099e-01  -2.8997358034628046e-01  -1.9200068424599145e-01  -8.4788616736407613e-02  2.7338471528154711e-02  1.4118532325210115e-01  2.5414187835601471e-01  3.6383630167215775e-01  4.6800990852189117e-01  5.6449007242393545e-01  6.5121569763407339e-01  7.2629001074597888e-01  7.8804491860483983e-01  8.3510625818138140e-01  8.6645205862539221e-01  8.8145825478655748e-01  8.7992776851936017e-01  8.6210065705411965e-01  8.2864419442322412e-01  7.8062338300454148e-01  7.1945347046936736e-01  6.4683756848291951e-01  5.6469331667850153e-01  4.7507353487414239e-01  3.8008587284144973e-01  2.8181638271470366e-01  1.8226093370800006e-01  8.3267305738573147e-02  -1.3510608639837378e-02  -1.0664611967658985e-01  -1.9496095792633492e-01  -2.7753509428061840e-01  -3.5370581742446860e-01  -4.2305673116671777e-01  -4.8539729328094439e-01  -5.4073399194337479e-01  -5.8923466679842929e-01  -6.3118837230227787e-01  -6.6696356636467469e-01  -6.9696795146191226e-01  -7.2161292008778843e-01  -7.4128525228331132e-01  -7.5632749920047704e-01  -7.6702758288051376e-01  -7.7361669246450193e-01  -7.7627383040663933e-01  -7.7513443651896152e-01  -7.7030059911665905e-01  -7.6185036818316809e-01  -7.4984472892318366e-01  -7.3433157427827367e-01  -7.1534787985230308e-01  -6.9292128506051431e-01  -6.6707879178749063e-01  -6.3785239783947356e-01  -6.0534545763675029e-01  -5.6966385867213365e-01  -5.3144811627591748e-01  -4.9060574396132178e-01  -4.5133625464098731e-01  -4.0841933332402997e-01  -3.9237003295793627e-01  -3.4585772187067571e-01  -4.7791057793593833e-01  -4.6418074102126805e-01  -3.7583554815397818e-01  -3.2861541600648297e-01  -2.5883911796004894e-01  -1.8445980349473870e-01  -1.0633359770211960e-01  -2.6820764318778400e-02  5.2096217956889977e-02  1.2863126964329247e-01  2.0114620424120791e-01  2.6812884837824952e-01  3.2819726691742185e-01  3.8011968331962026e-01  4.2284262846754506e-01  4.5552127108051460e-01  4.7754730120356054e-01  4.8857041945774404e-01  4.8851079864463720e-01  4.7756062365980501e-01  4.5617428457300602e-01  4.2504761121733892e-01  3.8508788494539364e-01  3.3737683168036237e-01  2.8312949873937521e-01  2.2365165911172652e-01  1.6029826136120509e-01  9.4434553281014230e-02  2.7400912632525840e-02  -3.9518401507073343e-02  -1.0512270998013670e-01  -1.6831892705352167e-01  -2.2814231463419957e-01  -2.8377386724813486e-01  -3.3455398644540851e-01  -3.7999185003190089e-01  -4.1976998466435722e-01  -4.5374355543596051e-01  -4.8193429623651834e-01  -5.0451903826124922e-01  -5.2181318688868883e-01  -5.3424935665209827e-01  -5.4235172724450587e-01  -5.4670652936922648e-01  -5.4792957681865662e-01  -5.4663184157258737e-01  -5.4338481178426989e-01  -5.3868752659376329e-01  -5.3293780980256888e-01  -5.2641002424325156e-01  -5.1924181325758834e-01  -5.1143153679528353e-01  -5.0284768820169079e-01  -4.9325081391264597e-01  -4.8232688001917529e-01  -4.6973561945997078e-01  -4.5515712791644108e-01  -4.3840095319475786e-01  -4.1934837812692466e-01  -3.9857166339565031e-01  -3.7575514086954226e-01  -3.5576162885628837e-01  -3.3011868269748545e-01  -3.3731501087920840e-01  -2.7668146405279614e-01  -4.6418074102126805e-01  -4.4188469570484540e-01  -4.0160476292545388e-01  -3.3806850930588905e-01  -2.6506388603497577e-01  -1.8883646389340900e-01  -1.0945576982686755e-01  -2.9102964552611230e-02  5.0543813958248737e-02  1.2787340179437284e-01  2.0135406296495545e-01  2.6952954075038588e-01  3.3103449356327908e-01  3.8462300127216564e-01  4.2920503874711513e-01  4.6388554025296586e-01  4.8800093585164434e-01  5.0114874597904457e-01  5.0320662022519391e-01  4.9433850353704700e-01  4.7498689170231834e-01  4.4585163472451078e-01  4.0785697227284295e-01  3.6210958779041574e-01  3.0985103834528954e-01  2.5240814623402996e-01  1.9114459526237884e-01  1.2741638661187568e-01  6.2532909665510811e-02  -2.2754911523124163e-03  -6.5883339805083083e-02  -1.2728964661377701e-01  -1.8563196071383140e-01  -2.4019550925569966e-01  -2.9041789937164270e-01  -3.3588967742371190e-01  -3.7635085798332413e-01  -4.1168349262599069e-01  -4.4190035685572526e-01  -4.6713001325052628e-01  -4.8759864255589325e-01  -5.0360929686225475e-01  -5.1551934173020397e-01  -5.2371708281640572e-01  -5.2859859479481097e-01  -5.3054586830639194e-01  -5.2990728666730669e-01  -5.2698142696062955e-01  -5.2200494488306881e-01  -5.1514522383490136e-01  -5.0649819908157112e-01  -4.9609176484493256e-01  -4.8389494961497392e-01  -4.6983348136421660e-01  -4.5381094996075272e-01  -4.3574134895592481e-01  -4.1557406638131750e-01  -3.9339037906505064e-01  -3.6928946712883698e-01  -3.4409683676418895e-01  -3.1730259122497684e-01  -2.9456024591826291e-01  -2.6347095445900270e-01  -2.7272901490486529e-01  -1.7736487739068210e-01  -4.4188469570484540e-01  -4.1187926650441387e-01  -4.3794035113277574e-01  -3.5827475749673482e-01  -2.9015525123583663e-01  -2.1851298438535896e-01  -1.4576009904429491e-01  -7.3091510036105062e-02  -1.7400639499569681e-03  6.7030328323860786e-02  1.3200070485681040e-01  1.9201528980675953e-01  2.4600473289876520e-01  2.9301128427420753e-01  3.3221510125585640e-01  3.6295954966460803e-01  3.8477309453156916e-01  3.9738568795727025e-01  4.0073798199440852e-01  3.9498244695027535e-01  3.8047609210028677e-01  3.5776531166794878e-01  3.2756385436951918e-01  2.9072547892296885e-01  2.4821299269259103e-01  2.0106550914024315e-01  1.5036552818469223e-01  9.7207253491456397e-02  4.2667160950851060e-02  -1.2222427014604065e-02  -6.6496345128806450e-02  -1.1927589758894233e-01  -1.6978435864652280e-01  -2.1735858064919084e-01  -2.6145665774738142e-01  -3.0166163342880270e-01  -3.3768125333309412e-01  -3.6934389178976212e-01  -3.9659082841177340e-01  -4.1946522606947662e-01  -4.3809821657117404e-01  -4.5269266818687814e-01  -4.6350522741067973e-01  -4.7082736500025774e-01  -4.7496613928748205e-01  -4.7622553083269398e-01  -4.7488915616818239e-01  -4.7120528201860901e-01  -4.6537499039603891e-01  -4.5754437716164170e-01  -4.4780150839019045e-01  -4.3617879744181171e-01  -4.2266115384160025e-01  -4.0720053045570870e-01  -3.8973558835843564e-01  -3.7022245045353319e-01  -3.4865320616304529e-01  -3.2515346624730962e-01  -2.9982063114861213e-01  -2.7353359588230863e-01  -2.4538779454000154e-01  -2.2175283907374266e-01  -1.8616237952406067e-01  -1.9842756455353883e-01  -7.0661318028632514e-02  -4.1187926650441387e-01  -3.7531754523690758e-01  -4.7753827622150957e-01  -3.8041618697082513e-01  -3.1524997684434591e-01  -2.4484327933925074e-01  -1.7524983129117422e-01  -1.0639424439580772e-01  -3.9283619025573202e-02  2.5118891124538422e-02  8.5830092428732810e-02  1.4189495217007295e-01  1.9241579422163574e-01  2.3658023507150883e-01  2.7368739495245786e-01  3.0317202124773179e-01  3.2462526664742369e-01  3.3781053387220022e-01  3.4267314060243731e-01  3.3934279509435350e-01  3.2812862382424923e-01  3.0950689869056969e-01  2.8410239349065680e-01  2.5266457843134738e-01  2.1604033729830818e-01  1.7514482373166454e-01  1.3093213795415629e-01  8.4367140245264538e-02  3.6399508818995473e-02  -1.2059302641452120e-02  -6.0155774632188068e-02  -1.0711056091173483e-01  -1.5223123283509388e-01  -1.9492158555870612e-01  -2.3468759093445332e-01  -2.7114004752103182e-01  -3.0399404722190226e-01  -3.3306532560421420e-01  -3.5826371984089767e-01  -3.7958393401385354e-01  -3.9709402916095365e-01  -4.1092201534257544e-01  -4.2124115357541131e-01  -4.2825450435781148e-01  -4.3217947889482766e-01  -4.3323301219338206e-01  -4.3161816703073419e-01  -4.2751279185764757e-01  -4.2106098351386356e-01  -4.1236785181660601e-01  -4.0149814837760167e-01  -3.8847904807973488e-01  -3.7330733077585787e-01  -3.5596132069385289e-01  -3.3641611467678423e-01  -3.1466859951233256e-01  -2.9074515686036706e-01  -2.6479717978861350e-01  -2.3688752390289974e-01  -2.0791468952800291e-01  -1.7652145470588995e-01  -1.4988120089758958e-01  -1.0738319236487372e-01  -1.2088378634728497e-01  4.0485612254282606e-02  -3.7531754523690758e-01  -3.3360457834658774e-01  -5.1707271993343706e-01  -4.0272364944510314e-01  -3.4131804320596587e-01  -2.7242434640513941e-01  -2.0608357863163074e-01  -1.4102859249772703e-01  -7.8169897259986645e-02  -1.8190584358228248e-02  3.8134425165239606e-02  9.0043243766852646e-02  1.3681242338892152e-01  1.7778665084674034e-01  2.1240291442157219e-01  2.4021134901712990e-01  2.6089202143432527e-01  2.7426715627156129e-01  2.8030808672618723e-01  2.7913664522955617e-01  2.7102083387756032e-01  2.5636518249627149e-01  2.3569633017761144e-01  2.0964482455916425e-01  1.7892412330819793e-01  1.4430801530018447e-01  1.0660748441687991e-01  6.6648062321716120e-02  2.5248432916590482e-02  -1.6799039492181599e-02  -5.8745442145408583e-02  -9.9899792962117484e-02  -1.3964069983961075e-01  -1.7742511943477948e-01  -2.1279417536640205e-01  -2.4537608648631720e-01  -2.7488623983125993e-01  -3.0112458109262119e-01  -3.2397045207473951e-01  -3.4337519348727175e-01  -3.5935276866129545e-01  -3.7196888617179702e-01  -3.8132899694338962e-01  -3.8756576689590466e-01  -3.9082648760647204e-01  -3.9126109888165650e-01  -3.8901130603415912e-01  -3.8420146040896924e-01  -3.7693162586890527e-01  -3.6727340411409676e-01  -3.5526878244052607e-01  -3.4093238831954997e-01  -3.2425710744203229e-01  -3.0522355208183516e-01  -2.8381140253577564e-01  -2.6001991876982444e-01  -2.3386648963908901e-01  -2.0548293416610833e-01  -1.7485277200680588e-01  -1.4286428097470660e-01  -1.0767727502405805e-01  -7.7364920177408328e-02  -2.7103491927658159e-02  -4.1373714768587234e-02  1.5336620561294514e-01  -3.3360457834658774e-01  -2.8834337175814717e-01  -5.5499149496892763e-01  -4.2377469212204488e-01  -3.6674488633268776e-01  -2.9915188072931498e-01  -2.3554939871853905e-01  -1.7357215981829513e-01  -1.1412337077036801e-01  -5.7659573272839902e-02  -4.7936812781771698e-03  4.3870027695168505e-02  8.7747921099132792e-02  1.2630830677776059e-01  1.5909359131346162e-01  1.8573915977247563e-01  2.0598821529839617e-01  2.1970244346224141e-01  2.2686820151500769e-01  2.2759801844859337e-01  2.2212741679969630e-01  2.1080729471827689e-01  1.9409236970353511e-01  1.7252638355885583e-01  1.4672491888183273e-01  1.1735673928845997e-01  8.5124555721380113e-02  5.0746042234118827e-02  1.4935796836727900e-02  -2.1611195967365458e-02  -5.8234198368770494e-02  -9.4319168501617714e-02  -1.2930885775026138e-01  -1.6271046117830268e-01  -1.9410079322784435e-01  -2.2312900475207526e-01  -2.4951690638998203e-01  -2.7305700664338506e-01  -2.9360843344414111e-01  -3.1109095330926118e-01  -3.2547737754208328e-01  -3.3678468171658105e-01  -3.4506423873830266e-01  -3.5039158481683491e-01  -3.5285618891488357e-01  -3.5255168938937459e-01  -3.4956708831490030e-01  -3.4397933265970959e-01  -3.3584771960803012e-01  -3.2521044269209592e-01  -3.1208356878047938e-01  -2.9646259093668587e-01  -2.7832654216574326e-01  -2.5764496593521602e-01  -2.3438566306205708e-01  -2.0853103294718106e-01  -1.8006857367593318e-01  -1.4908950677308352e-01  -1.1548007235029374e-01  -8.0111136006565969e-02  -4.0657612882190650e-02  -6.1637698091963926e-03  5.2433644555616395e-02  3.7750524213384457e-02  2.6524288934237022e-01  -2.8834337175814717e-01  -2.4127328825800318e-01  -5.9054043536647982e-01  -4.4282850913439892e-01  -3.9080718631526284e-01  -3.2455807535204551e-01  -2.6355327724078603e-01  -2.0433140595778695e-01  -1.4787371997345886e-01  -9.4461533704101971e-02  -4.4585436990212328e-02  1.2780576229604280e-03  4.2661206024323883e-02  7.9137222536228582e-02  1.1033942764363952e-01  1.3597804968040056e-01  1.5585300084361761e-01  1.6986290480438043e-01  1.7801029328246704e-01  1.8040287445643194e-01  1.7725102987033556e-01  1.6886170600708333e-01  1.5562918382145330e-01  1.3802319653487430e-01  1.1657511103398874e-01  9.1862794681529511e-02  6.4494922192909518e-02  3.5095311373886398e-02  4.2879041200553662e-03  -2.7317179348913524e-02  -5.9136109159849674e-02  -9.0622086833270776e-02  -1.2127416039030012e-01  -1.5064400187883781e-01  -1.7834060078527184e-01  -2.0403285660545531e-01  -2.2745014512929196e-01  -2.4838092266019524e-01  -2.6666954860935110e-01  -2.8221148174039118e-01  -2.9494713409976198e-01  -3.0485462349272763e-01  -3.1194180024081047e-01  -3.1623785394072684e-01  -3.1778493491660670e-01  -3.1663011790525464e-01  -3.1281814154787946e-01  -3.0638523172288373e-01  -2.9735436514006158e-01  -2.8573218631156622e-01  -2.7150779400959663e-01  -2.5465345629036762e-01  -2.3512719331245932e-01  -2.1287747336745455e-01  -1.8784780396394588e-01  -1.5998966078495652e-01  -1.2924636145228008e-01  -9.5655240169069081e-02  -5.8997343097473606e-02  -2.0123285936987183e-02  2.3763682508181651e-02  6.2622355236862035e-02  1.2970227683059210e-01  1.1478595730877253e-01  3.7384141046489361e-01  -2.4127328825800318e-01  -1.9420320475785910e-01  -6.2336452542534282e-01  -4.5958834998292919e-01  -4.1307737073349343e-01  -3.4820782389219629e-01  -2.8967765437943804e-01  -2.3292097181982649e-01  -1.7907242142235028e-01  -1.2827711920390122e-01  -8.0938763569494684e-02  -3.7434258818656405e-02  1.8611400791844837e-03  3.6605928096949646e-02  6.6507903421303388e-02  9.1338852632612239e-02  1.1094538684674302e-01  1.2525664329317449e-01  1.3428867795917757e-01  1.3814565759858305e-01  1.3701788875373830e-01  1.3117696661355147e-01  1.2096830585898818e-01  1.0680154556522066e-01  8.9139266699297698e-02  6.8484627350727745e-02  4.5368409378757864e-02  2.0336046425507261e-02  -6.0649448627761917e-03  -3.3296689188056512e-02  -6.0841540814330616e-02  -8.8211267016348960e-02  -1.1495466110947755e-01  -1.4066346581573130e-01  -1.6497654303959988e-01  -1.8758229291373729e-01  -2.0821933689755373e-01  -2.2667556931354516e-01  -2.4278567092274678e-01  -2.5642728044004603e-01  -2.6751599106880880e-01  -2.7599945233208756e-01  -2.8185080560628289e-01  -2.8506179561085948e-01  -2.8563581183832182e-01  -2.8358122720748391e-01  -2.7890528193931008e-01  -2.7160883588067702e-01  -2.6168218048355635e-01  -2.4910213478607970e-01  -2.3383049479628648e-01  -2.1581392542405287e-01  -1.9498509949087270e-01  -1.7126542298793956e-01  -1.4456695360712438e-01  -1.1480256249336368e-01  -8.1864552608270275e-02  -4.5730583214248416e-02  -6.0772960795410103e-03  3.6266868741276034e-02  8.4541251299574585e-02  1.2773494678905598e-01  2.0311093656841700e-01  1.8808201516665662e-01  4.7690324770878101e-01  -1.9420320475785910e-01  -1.4894199816941869e-01  -6.5330736987272386e-01  -4.7404870801972371e-01  -4.3336096108913408e-01  -3.6988044841504941e-01  -3.1372984633681189e-01  -2.5921845681172423e-01  -2.0768787299721003e-01  -1.5917547969087353e-01  -1.1402733228313935e-01  -7.2544006948049619e-02  -3.5027866392453123e-02  -1.7513183909685273e-03  2.7054792919237458e-02  5.1213616530524107e-02  7.0611235943296435e-02  8.5203030440477723e-02  9.5017318813394480e-02  1.0015633365293033e-01  1.0079465967260841e-01  9.7175284546508103e-02  8.9603562026129457e-02  7.8439391909225720e-02  6.4088043590761631e-02  4.6990013808203404e-02  2.7610385064259776e-02  6.4280704774424815e-03  -1.6074642809403409e-02  -3.9421945059028185e-02  -6.3153448712365556e-02  -8.6832020867118151e-02  -1.1005032990207889e-01  -1.3243599784354573e-01  -1.5365529590391991e-01  -1.7341535972198222e-01  -1.9146495621801085e-01  -2.0759385243233042e-01  -2.2163090115857886e-01  -2.3344096328442618e-01  -2.4292085609851924e-01  -2.4999450206352089e-01  -2.5460752874213260e-01  -2.5672152903636952e-01  -2.5630826505171539e-01  -2.5334402606753637e-01  -2.4780441160670569e-01  -2.3965971817668102e-01  -2.2887113408403303e-01  -2.1538783740060607e-01  -1.9914508866099390e-01  -1.8006329916548172e-01  -1.5804793902193756e-01  -1.3299054500267321e-01  -1.0476849924058969e-01  -7.3252911850201510e-02  -3.8283325855982590e-02  2.2336453782683841e-04  4.2688293237601774e-02  8.8309157434045327e-02  1.4072194521029224e-01  1.8803013413164160e-01  2.7118971729520391e-01  2.5613876104691619e-01  5.7227447816905619e-01  -1.4894199816941869e-01  -1.0722903127909872e-01  -6.8030000339112884e-01  -4.8639226082579956e-01  -4.5161480452664887e-01  -3.8948548277595635e-01  -3.3560485213033486e-01  -2.8314123605611491e-01  -2.3368016387497639e-01  -1.8717109928986092e-01  -1.4392443601585070e-01  -1.0418261444035783e-01  -6.8191045707362077e-02  -3.6166476853437469e-02  -8.2894826032531843e-03  1.5305725633111415e-02  3.4538355706786962e-02  4.9386139783155189e-02  5.9888223394998802e-02  6.6145917967736348e-02  6.8321390409055299e-02  6.6634437399779464e-02  6.1357550803912746e-02  5.2809541387434239e-02  4.1348021950579586e-02  2.7361092400665452e-02  1.1258560538416095e-02  -6.5369547650672112e-03  -2.5598740520493470e-02  -4.5504233457959044e-02  -6.5842565591755026e-02  -8.6221209471393015e-02  -1.0627158246639361e-01  -1.2565349947955604e-01  -1.4405841638768935e-01  -1.6121143586193565e-01  -1.7687209313240387e-01  -1.9083396493840563e-01  -2.0292318596995898e-01  -2.1299598176076517e-01  -2.2093535638267142e-01  -2.2664709960030249e-01  -2.3005529006805719e-01  -2.3109749522765255e-01  -2.2971985655457378e-01  -2.2587226585394327e-01  -2.1950380444135728e-01  -2.1055861326293196e-01  -1.9897230995121795e-01  -1.8466904315965088e-01  -1.6755920592770196e-01  -1.4753780090874305e-01  -1.2448327870180323e-01  -9.8257155778470329e-02  -6.8702083201351252e-02  -3.5647873770873841e-02  1.1164983011514634e-03  4.1732477806393643e-02  8.6707721999090367e-02  1.3527246500341844e-01  1.9139550704496511e-01  2.4243485046975566e-01  3.3255694346218256e-01  3.1756915350247139e-01  6.5790137554957329e-01  -1.0722903127909872e-01  -7.0667310011592488e-02  -7.0429685823507182e-01  -4.9691010641195121e-01  -4.6788459540700511e-01  -4.0701943622621861e-01  -3.5526907225249682e-01  -3.0466430494754981e-01  -2.5705451797473672e-01  -2.1231324944070268e-01  -1.7073029284329780e-01  -1.3250322607339596e-01  -9.7832654014641043e-02  -6.6890151594085040e-02  -3.9814822065523045e-02  -1.6705217931686500e-02  2.3859148198104802e-03  1.7455548394764681e-02  2.8552533390165277e-02  3.5778093470011582e-02  3.9284669470985238e-02  3.9273243804144715e-02  3.5989280337396873e-02  2.9717500415140600e-02  2.0775719629121382e-02  9.5080170754859982e-03  -3.7224973816282741e-03  -1.8541048746