<?xml version="1.0"?>
<VTKFile type="UnstructuredGrid"  version="0.1"  >
<UnstructuredGrid>
<Piece  NumberOfPoints="4225" NumberOfCells="8192">
<Points>
<DataArray  type="Float64"  NumberOfComponents="3"  format="ascii">-1 -1 0  -0.96875 -1 0  -0.9375 -1 0  -0.90625 -1 0  -0.875 -1 0  -0.84375 -1 0  -0.8125 -1 0  -0.78125 -1 0  -0.75 -1 0  -0.71875 -1 0  -0.6875 -1 0  -0.65625 -1 0  -0.625 -1 0  -0.59375 -1 0  -0.5625 -1 0  -0.53125 -1 0  -0.5 -1 0  -0.46875 -1 0  -0.4375 -1 0  -0.40625 -1 0  -0.375 -1 0  -0.34375 -1 0  -0.3125 -1 0  -0.28125 -1 0  -0.25 -1 0  -0.21875 -1 0  -0.1875 -1 0  -0.15625 -1 0  -0.125 -1 0  -0.09375 -1 0  -0.0625 -1 0  -0.03125 -1 0  0 -1 0  0.03125 -1 0  0.0625 -1 0  0.09375 -1 0  0.125 -1 0  0.15625 -1 0  0.1875 -1 0  0.21875 -1 0  0.25 -1 0  0.28125 -1 0  0.3125 -1 0  0.34375 -1 0  0.375 -1 0  0.40625 -1 0  0.4375 -1 0  0.46875 -1 0  0.5 -1 0  0.53125 -1 0  0.5625 -1 0  0.59375 -1 0  0.625 -1 0  0.65625 -1 0  0.6875 -1 0  0.71875 -1 0  0.75 -1 0  0.78125 -1 0  0.8125 -1 0  0.84375 -1 0  0.875 -1 0  0.90625 -1 0  0.9375 -1 0  0.96875 -1 0  1 -1 0  -1 -0.96875 0  -0.96875 -0.96875 0  -0.9375 -0.96875 0  -0.90625 -0.96875 0  -0.875 -0.96875 0  -0.84375 -0.96875 0  -0.8125 -0.96875 0  -0.78125 -0.96875 0  -0.75 -0.96875 0  -0.71875 -0.96875 0  -0.6875 -0.96875 0  -0.65625 -0.96875 0  -0.625 -0.96875 0  -0.59375 -0.96875 0  -0.5625 -0.96875 0  -0.53125 -0.96875 0  -0.5 -0.96875 0  -0.46875 -0.96875 0  -0.4375 -0.96875 0  -0.40625 -0.96875 0  -0.375 -0.96875 0  -0.34375 -0.96875 0  -0.3125 -0.96875 0  -0.28125 -0.96875 0  -0.25 -0.96875 0  -0.21875 -0.96875 0  -0.1875 -0.96875 0  -0.15625 -0.96875 0  -0.125 -0.96875 0  -0.09375 -0.96875 0  -0.0625 -0.96875 0  -0.03125 -0.96875 0  0 -0.96875 0  0.03125 -0.96875 0  0.0625 -0.96875 0  0.09375 -0.96875 0  0.125 -0.96875 0  0.15625 -0.96875 0  0.1875 -0.96875 0  0.21875 -0.96875 0  0.25 -0.96875 0  0.28125 -0.96875 0  0.3125 -0.96875 0  0.34375 -0.96875 0  0.375 -0.96875 0  0.40625 -0.96875 0  0.4375 -0.96875 0  0.46875 -0.96875 0  0.5 -0.96875 0  0.53125 -0.96875 0  0.5625 -0.96875 0  0.59375 -0.96875 0  0.625 -0.96875 0  0.65625 -0.96875 0  0.6875 -0.96875 0  0.71875 -0.96875 0  0.75 -0.96875 0  0.78125 -0.96875 0  0.8125 -0.96875 0  0.84375 -0.96875 0  0.875 -0.96875 0  0.90625 -0.96875 0  0.9375 -0.96875 0  0.96875 -0.96875 0  1 -0.96875 0  -1 -0.9375 0  -0.96875 -0.9375 0  -0.9375 -0.9375 0  -0.90625 -0.9375 0  -0.875 -0.9375 0  -0.84375 -0.9375 0  -0.8125 -0.9375 0  -0.78125 -0.9375 0  -0.75 -0.9375 0  -0.71875 -0.9375 0  -0.6875 -0.9375 0  -0.65625 -0.9375 0  -0.625 -0.9375 0  -0.59375 -0.9375 0  -0.5625 -0.9375 0  -0.53125 -0.9375 0  -0.5 -0.9375 0  -0.46875 -0.9375 0  -0.4375 -0.9375 0  -0.40625 -0.9375 0  -0.375 -0.9375 0  -0.34375 -0.9375 0  -0.3125 -0.9375 0  -0.28125 -0.9375 0  -0.25 -0.9375 0  -0.21875 -0.9375 0  -0.1875 -0.9375 0  -0.15625 -0.9375 0  -0.125 -0.9375 0  -0.09375 -0.9375 0  -0.0625 -0.9375 0  -0.03125 -0.9375 0  0 -0.9375 0  0.03125 -0.9375 0  0.0625 -0.9375 0  0.09375 -0.9375 0  0.125 -0.9375 0  0.15625 -0.9375 0  0.1875 -0.9375 0  0.21875 -0.9375 0  0.25 -0.9375 0  0.28125 -0.9375 0  0.3125 -0.9375 0  0.34375 -0.9375 0  0.375 -0.9375 0  0.40625 -0.9375 0  0.4375 -0.9375 0  0.46875 -0.9375 0  0.5 -0.9375 0  0.53125 -0.9375 0  0.5625 -0.9375 0  0.59375 -0.9375 0  0.625 -0.9375 0  0.65625 -0.9375 0  0.6875 -0.9375 0  0.71875 -0.9375 0  0.75 -0.9375 0  0.78125 -0.9375 0  0.8125 -0.9375 0  0.84375 -0.9375 0  0.875 -0.9375 0  0.90625 -0.9375 0  0.9375 -0.9375 0  0.96875 -0.9375 0  1 -0.9375 0  -1 -0.90625 0  -0.96875 -0.90625 0  -0.9375 -0.90625 0  -0.90625 -0.90625 0  -0.875 -0.90625 0  -0.84375 -0.90625 0  -0.8125 -0.90625 0  -0.78125 -0.90625 0  -0.75 -0.90625 0  -0.71875 -0.90625 0  -0.6875 -0.90625 0  -0.65625 -0.90625 0  -0.625 -0.90625 0  -0.59375 -0.90625 0  -0.5625 -0.90625 0  -0.53125 -0.90625 0  -0.5 -0.90625 0  -0.46875 -0.90625 0  -0.4375 -0.90625 0  -0.40625 -0.90625 0  -0.375 -0.90625 0  -0.34375 -0.90625 0  -0.3125 -0.90625 0  -0.28125 -0.90625 0  -0.25 -0.90625 0  -0.21875 -0.90625 0  -0.1875 -0.90625 0  -0.15625 -0.90625 0  -0.125 -0.90625 0  -0.09375 -0.90625 0  -0.0625 -0.90625 0  -0.03125 -0.90625 0  0 -0.90625 0  0.03125 -0.90625 0  0.0625 -0.90625 0  0.09375 -0.90625 0  0.125 -0.90625 0  0.15625 -0.90625 0  0.1875 -0.90625 0  0.21875 -0.90625 0  0.25 -0.90625 0  0.28125 -0.90625 0  0.3125 -0.90625 0  0.34375 -0.90625 0  0.375 -0.90625 0  0.40625 -0.90625 0  0.4375 -0.90625 0  0.46875 -0.90625 0  0.5 -0.90625 0  0.53125 -0.90625 0  0.5625 -0.90625 0  0.59375 -0.90625 0  0.625 -0.90625 0  0.65625 -0.90625 0  0.6875 -0.90625 0  0.71875 -0.90625 0  0.75 -0.90625 0  0.78125 -0.90625 0  0.8125 -0.90625 0  0.84375 -0.90625 0  0.875 -0.90625 0  0.90625 -0.90625 0  0.9375 -0.90625 0  0.96875 -0.90625 0  1 -0.90625 0  -1 -0.875 0  -0.96875 -0.875 0  -0.9375 -0.875 0  -0.90625 -0.875 0  -0.875 -0.875 0  -0.84375 -0.875 0  -0.8125 -0.875 0  -0.78125 -0.875 0  -0.75 -0.875 0  -0.71875 -0.875 0  -0.6875 -0.875 0  -0.65625 -0.875 0  -0.625 -0.875 0  -0.59375 -0.875 0  -0.5625 -0.875 0  -0.53125 -0.875 0  -0.5 -0.875 0  -0.46875 -0.875 0  -0.4375 -0.875 0  -0.40625 -0.875 0  -0.375 -0.875 0  -0.34375 -0.875 0  -0.3125 -0.875 0  -0.28125 -0.875 0  -0.25 -0.875 0  -0.21875 -0.875 0  -0.1875 -0.875 0  -0.15625 -0.875 0  -0.125 -0.875 0  -0.09375 -0.875 0  -0.0625 -0.875 0  -0.03125 -0.875 0  0 -0.875 0  0.03125 -0.875 0  0.0625 -0.875 0  0.09375 -0.875 0  0.125 -0.875 0  0.15625 -0.875 0  0.1875 -0.875 0  0.21875 -0.875 0  0.25 -0.875 0  0.28125 -0.875 0  0.3125 -0.875 0  0.34375 -0.875 0  0.375 -0.875 0  0.40625 -0.875 0  0.4375 -0.875 0  0.46875 -0.875 0  0.5 -0.875 0  0.53125 -0.875 0  0.5625 -0.875 0  0.59375 -0.875 0  0.625 -0.875 0  0.65625 -0.875 0  0.6875 -0.875 0  0.71875 -0.875 0  0.75 -0.875 0  0.78125 -0.875 0  0.8125 -0.875 0  0.84375 -0.875 0  0.875 -0.875 0  0.90625 -0.875 0  0.9375 -0.875 0  0.96875 -0.875 0  1 -0.875 0  -1 -0.84375 0  -0.96875 -0.84375 0  -0.9375 -0.84375 0  -0.90625 -0.84375 0  -0.875 -0.84375 0  -0.84375 -0.84375 0  -0.8125 -0.84375 0  -0.78125 -0.84375 0  -0.75 -0.84375 0  -0.71875 -0.84375 0  -0.6875 -0.84375 0  -0.65625 -0.84375 0  -0.625 -0.84375 0  -0.59375 -0.84375 0  -0.5625 -0.84375 0  -0.53125 -0.84375 0  -0.5 -0.84375 0  -0.46875 -0.84375 0  -0.4375 -0.84375 0  -0.40625 -0.84375 0  -0.375 -0.84375 0  -0.34375 -0.84375 0  -0.3125 -0.84375 0  -0.28125 -0.84375 0  -0.25 -0.84375 0  -0.21875 -0.84375 0  -0.1875 -0.84375 0  -0.15625 -0.84375 0  -0.125 -0.84375 0  -0.09375 -0.84375 0  -0.0625 -0.84375 0  -0.03125 -0.84375 0  0 -0.84375 0  0.03125 -0.84375 0  0.0625 -0.84375 0  0.09375 -0.84375 0  0.125 -0.84375 0  0.15625 -0.84375 0  0.1875 -0.84375 0  0.21875 -0.84375 0  0.25 -0.84375 0  0.28125 -0.84375 0  0.3125 -0.84375 0  0.34375 -0.84375 0  0.375 -0.84375 0  0.40625 -0.84375 0  0.4375 -0.84375 0  0.46875 -0.84375 0  0.5 -0.84375 0  0.53125 -0.84375 0  0.5625 -0.84375 0  0.59375 -0.84375 0  0.625 -0.84375 0  0.65625 -0.84375 0  0.6875 -0.84375 0  0.71875 -0.84375 0  0.75 -0.84375 0  0.78125 -0.84375 0  0.8125 -0.84375 0  0.84375 -0.84375 0  0.875 -0.84375 0  0.90625 -0.84375 0  0.9375 -0.84375 0  0.96875 -0.84375 0  1 -0.84375 0  -1 -0.8125 0  -0.96875 -0.8125 0  -0.9375 -0.8125 0  -0.90625 -0.8125 0  -0.875 -0.8125 0  -0.84375 -0.8125 0  -0.8125 -0.8125 0  -0.78125 -0.8125 0  -0.75 -0.8125 0  -0.71875 -0.8125 0  -0.6875 -0.8125 0  -0.65625 -0.8125 0  -0.625 -0.8125 0  -0.59375 -0.8125 0  -0.5625 -0.8125 0  -0.53125 -0.8125 0  -0.5 -0.8125 0  -0.46875 -0.8125 0  -0.4375 -0.8125 0  -0.40625 -0.8125 0  -0.375 -0.8125 0  -0.34375 -0.8125 0  -0.3125 -0.8125 0  -0.28125 -0.8125 0  -0.25 -0.8125 0  -0.21875 -0.8125 0  -0.1875 -0.8125 0  -0.15625 -0.8125 0  -0.125 -0.8125 0  -0.09375 -0.8125 0  -0.0625 -0.8125 0  -0.03125 -0.8125 0  0 -0.8125 0  0.03125 -0.8125 0  0.0625 -0.8125 0  0.09375 -0.8125 0  0.125 -0.8125 0  0.15625 -0.8125 0  0.1875 -0.8125 0  0.21875 -0.8125 0  0.25 -0.8125 0  0.28125 -0.8125 0  0.3125 -0.8125 0  0.34375 -0.8125 0  0.375 -0.8125 0  0.40625 -0.8125 0  0.4375 -0.8125 0  0.46875 -0.8125 0  0.5 -0.8125 0  0.53125 -0.8125 0  0.5625 -0.8125 0  0.59375 -0.8125 0  0.625 -0.8125 0  0.65625 -0.8125 0  0.6875 -0.8125 0  0.71875 -0.8125 0  0.75 -0.8125 0  0.78125 -0.8125 0  0.8125 -0.8125 0  0.84375 -0.8125 0  0.875 -0.8125 0  0.90625 -0.8125 0  0.9375 -0.8125 0  0.96875 -0.8125 0  1 -0.8125 0  -1 -0.78125 0  -0.96875 -0.78125 0  -0.9375 -0.78125 0  -0.90625 -0.78125 0  -0.875 -0.78125 0  -0.84375 -0.78125 0  -0.8125 -0.78125 0  -0.78125 -0.78125 0  -0.75 -0.78125 0  -0.71875 -0.78125 0  -0.6875 -0.78125 0  -0.65625 -0.78125 0  -0.625 -0.78125 0  -0.59375 -0.78125 0  -0.5625 -0.78125 0  -0.53125 -0.78125 0  -0.5 -0.78125 0  -0.46875 -0.78125 0  -0.4375 -0.78125 0  -0.40625 -0.78125 0  -0.375 -0.78125 0  -0.34375 -0.78125 0  -0.3125 -0.78125 0  -0.28125 -0.78125 0  -0.25 -0.78125 0  -0.21875 -0.78125 0  -0.1875 -0.78125 0  -0.15625 -0.78125 0  -0.125 -0.78125 0  -0.09375 -0.78125 0  -0.0625 -0.78125 0  -0.03125 -0.78125 0  0 -0.78125 0  0.03125 -0.78125 0  0.0625 -0.78125 0  0.09375 -0.78125 0  0.125 -0.78125 0  0.15625 -0.78125 0  0.1875 -0.78125 0  0.21875 -0.78125 0  0.25 -0.78125 0  0.28125 -0.78125 0  0.3125 -0.78125 0  0.34375 -0.78125 0  0.375 -0.78125 0  0.40625 -0.78125 0  0.4375 -0.78125 0  0.46875 -0.78125 0  0.5 -0.78125 0  0.53125 -0.78125 0  0.5625 -0.78125 0  0.59375 -0.78125 0  0.625 -0.78125 0  0.65625 -0.78125 0  0.6875 -0.78125 0  0.71875 -0.78125 0  0.75 -0.78125 0  0.78125 -0.78125 0  0.8125 -0.78125 0  0.84375 -0.78125 0  0.875 -0.78125 0  0.90625 -0.78125 0  0.9375 -0.78125 0  0.96875 -0.78125 0  1 -0.78125 0  -1 -0.75 0  -0.96875 -0.75 0  -0.9375 -0.75 0  -0.90625 -0.75 0  -0.875 -0.75 0  -0.84375 -0.75 0  -0.8125 -0.75 0  -0.78125 -0.75 0  -0.75 -0.75 0  -0.71875 -0.75 0  -0.6875 -0.75 0  -0.65625 -0.75 0  -0.625 -0.75 0  -0.59375 -0.75 0  -0.5625 -0.75 0  -0.53125 -0.75 0  -0.5 -0.75 0  -0.46875 -0.75 0  -0.4375 -0.75 0  -0.40625 -0.75
[...]
<PointData  Scalars="f_15"> 
<DataArray  type="Float64"  Name="f_15"  format="ascii">-4.1713175392052770e-01  -4.1312421907728197e-01  -4.0125562186411895e-01  -3.8198206581595490e-01  -3.5604422288298559e-01  -3.2443886982301529e-01  -2.8838058262965266e-01  -2.4925506105801801e-01  -2.0856587696026380e-01  -1.6787669286250972e-01  -1.2875117129087504e-01  -9.2692884097512404e-02  -6.1087531037542137e-02  -3.5149688104572877e-02  -1.5876132056408716e-02  -4.0075348432458135e-03  0.0000000000000000e+00  -4.0075348432458135e-03  -1.5876132056408740e-02  -3.5149688104572890e-02  -6.1087531037542178e-02  -9.2692884097512446e-02  -1.2875117129087515e-01  -1.6787669286250986e-01  -2.0856587696026385e-01  -2.4925506105801801e-01  -2.8838058262965266e-01  -3.2443886982301534e-01  -3.5604422288298559e-01  -3.8198206581595490e-01  -4.0125562186411901e-01  -4.1312421907728197e-01  -4.1713175392052770e-01  -4.1312421907728197e-01  -4.0125562186411901e-01  -3.8198206581595490e-01  -3.5604422288298559e-01  -3.2443886982301534e-01  -2.8838058262965266e-01  -2.4925506105801801e-01  -2.0856587696026385e-01  -1.6787669286250986e-01  -1.2875117129087515e-01  -9.2692884097512446e-02  -6.1087531037542178e-02  -3.5149688104572890e-02  -1.5876132056408740e-02  -4.0075348432458135e-03  0.0000000000000000e+00  -4.0075348432458135e-03  -1.5876132056408716e-02  -3.5149688104572877e-02  -6.1087531037542137e-02  -9.2692884097512404e-02  -1.2875117129087504e-01  -1.6787669286250972e-01  -2.0856587696026380e-01  -2.4925506105801801e-01  -2.8838058262965266e-01  -3.2443886982301529e-01  -3.5604422288298559e-01  -3.8198206581595490e-01  -4.0125562186411895e-01  -4.1312421907728197e-01  -4.1713175392052770e-01  -4.1312421907728197e-01  -3.7853477062677915e-01  -3.7573400598830109e-01  -3.6396882538653075e-01  -3.4436379041982962e-01  -3.1683605127410963e-01  -2.8243725809435971e-01  -2.4267856463309140e-01  -1.9926997567040836e-01  -1.5396538956048619e-01  -1.0846823987747743e-01  -6.4371502019482857e-02  -2.3117480586253250e-02  1.4030816261738726e-02  4.6011006599191065e-02  7.1977486806487814e-02  9.1313386082105541e-02  1.0363879128985341e-01  1.0881549835806201e-01  1.0694843819241991e-01  9.8383853240227137e-02  8.3704114797095802e-02  6.3718682480369396e-02  3.9449744365039806e-02  1.2109115598098468e-02  -1.6940353588317542e-02  -4.6249533195523759e-02  -7.4385777461285940e-02  -1.0007775726453808e-01  -1.2238458826974452e-01  -1.4084152388271257e-01  -1.5551816566398072e-01  -1.6694681770642678e-01  -1.7593600898880937e-01  -1.8334070167678276e-01  -1.8987479793424736e-01  -1.9601727704146724e-01  -2.0201089878318254e-01  -2.0791726758958443e-01  -2.1368611966515622e-01  -2.1921116845302563e-01  -2.2436386612684245e-01  -2.2901004662271501e-01  -2.3301922114043322e-01  -2.3627474907144352e-01  -2.3868837789383698e-01  -2.4021803569157188e-01  -2.4088453672843876e-01  -2.4078206919426429e-01  -2.4007872490199966e-01  -2.3900735792896538e-01  -2.3785283187753029e-01  -2.3694923413296168e-01  -2.3670253877518796e-01  -2.3764942193035535e-01  -2.4052382951412651e-01  -2.4628583033805745e-01  -2.5597039885949607e-01  -2.7042549052310028e-01  -2.8964305202387941e-01  -3.1291366527573650e-01  -3.3692793787682690e-01  -3.6257042447582177e-01  -3.7291623377795663e-01  -4.1312421907728197e-01  -4.0125562186411895e-01  -3.6186244988213878e-01  -3.7445349009785506e-01  -3.6499276631522171e-01  -3.4689048197555972e-01  -3.2025863189300519e-01  -2.8686211401428219e-01  -2.4851059702433204e-01  -2.0705918058075712e-01  -1.6431469773903604e-01  -1.2198205724459590e-01  -8.1628602787124832e-02  -4.4655375935085229e-02  -1.2270376398858812e-02  1.4536727579182927e-02  3.5017010604168390e-02  4.8679982982537201e-02  5.5305005723500972e-02  5.4945431999302338e-02  4.7925173991730081e-02  3.4828082165345352e-02  1.6481141957827020e-02  -6.0674116208374622e-03  -3.1575053558447579e-02  -5.8640332274616860e-02  -8.5755860360575684e-02  -1.1139416666402277e-01  -1.3414057471996801e-01  -1.5286967427084033e-01  -1.6692736576855932e-01  -1.7624863884307770e-01  -1.8134511607236811e-01  -1.8314858684645893e-01  -1.8276663418452116e-01  -1.8124225170092353e-01  -1.7939009955275279e-01  -1.7773256708247795e-01  -1.7651759043823534e-01  -1.7578349181139508e-01  -1.7543872237479693e-01  -1.7533482541722983e-01  -1.7532228457957869e-01  -1.7528732428491584e-01  -1.7517239668821302e-01  -1.7498422653271575e-01  -1.7479282419677794e-01  -1.7472395650687067e-01  -1.7494730324882182e-01  -1.7566265721979227e-01  -1.7708712635357554e-01  -1.7944697289641523e-01  -1.8297824580516472e-01  -1.8794121141928632e-01  -1.9464974909572036e-01  -2.0351558721467999e-01  -2.1507667951728632e-01  -2.2999009277313415e-01  -2.4884297174193037e-01  -2.7190010310366697e-01  -2.9837594706666509e-01  -3.2668744406090872e-01  -3.5259840256051506e-01  -3.7554706864771931e-01  -3.7955118297668566e-01  -4.0125562186411895e-01  -3.8198206581595490e-01  -3.3765546346876540e-01  -3.5268772501492068e-01  -3.4444482280128474e-01  -3.2910235085982398e-01  -3.0484579022210717e-01  -2.7349539750733970e-01  -2.3673625361804171e-01  -1.9640162618703610e-01  -1.5430887104976768e-01  -1.1218358135114014e-01  -7.1610937013267983e-02  -3.4004052076467915e-02  -5.8038419408864780e-04  2.7657770292571882e-02  4.9939753893420771e-02  6.5739749420032106e-02  7.4786211122538554e-02  7.7067250272262494e-02  7.2832062165117603e-02  6.2588693299638343e-02  4.7098156882536560e-02  2.7363477769159924e-02  4.6089609487700274e-03  -1.9760263297472130e-02  -4.4233224061073398e-02  -6.7315960262826088e-02  -8.7700369191929389e-02  -1.0444793140982754e-01  -1.1712914266716097e-01  -1.2585840723941583e-01  -1.3120225194909385e-01  -1.3399540145808986e-01  -1.3513489990009447e-01  -1.3541613329408630e-01  -1.3544048385878946e-01  -1.3559095744432592e-01  -1.3605511893234570e-01  -1.3687241917415513e-01  -1.3798783459317937e-01  -1.3930036387788916e-01  -1.4070098654966379e-01  -1.4209921609017290e-01  -1.4343990874197585e-01  -1.4471281159367885e-01  -1.4595705859378941e-01  -1.4726220915851784e-01  -1.4876687568311750e-01  -1.5065583890824635e-01  -1.5315672765507715e-01  -1.5653813489576190e-01  -1.6111148884674911e-01  -1.6724040729039485e-01  -1.7535634888766261e-01  -1.8598011301581849e-01  -1.9970918332833548e-01  -2.1716065924599734e-01  -2.3869737930486370e-01  -2.6417911536409283e-01  -2.9219144594125512e-01  -3.2068088706197512e-01  -3.4490095319895764e-01  -3.6444005466473811e-01  -3.6491321059657550e-01  -3.8198206581595490e-01  -3.5604422288298559e-01  -3.1210668620005433e-01  -3.2700554377167562e-01  -3.2036429061489802e-01  -3.0675185800180049e-01  -2.8445238620603991e-01  -2.5522532890352539e-01  -2.2059311302650009e-01  -1.8233256291772063e-01  -1.4223511917106699e-01  -1.0201744903168231e-01  -6.3256448713948366e-02  -2.7349146316967093e-02  4.5139550702780647e-03  3.1368582744270360e-02  5.2492358998849381e-02  6.7417069726140241e-02  7.5937162770753117e-02  7.8113933572753050e-02  7.4274911825076367e-02  6.5007830767848163e-02  5.1147579314352577e-02  3.3752355826239006e-02  1.4061918329293729e-02  -6.5717939191861979e-03  -2.6789551889775953e-02  -4.5362457182282795e-02  -6.1340227765796208e-02  -7.4169520019460436e-02  -8.3739450050641512e-02  -9.0334275809098613e-02  -9.4510513247269029e-02  -9.6943734445344501e-02  -9.8292433023476608e-02  -9.9107113403799144e-02  -9.9789013804831808e-02  -1.0058779095609079e-01  -1.0162310130939935e-01  -1.0291718535609470e-01  -1.0442955435954021e-01  -1.0608857423331665e-01  -1.0781745117409622e-01  -1.0955403789832580e-01  -1.1126496276762977e-01  -1.1295508564497078e-01  -1.1467328527283191e-01  -1.1651547064689392e-01  -1.1862557209110093e-01  -1.2119536682890020e-01  -1.2446419338157345e-01  -1.2872023969508842e-01  -1.3430499516778527e-01  -1.4162362491907055e-01  -1.5115670944223816e-01  -1.6347076942071836e-01  -1.7917273159149777e-01  -1.9881146519487139e-01  -2.2251889184067811e-01  -2.4980220310272402e-01  -2.7871137392579004e-01  -3.0697899411108753e-01  -3.2952791687987015e-01  -3.4666322695565055e-01  -3.4559652505593130e-01  -3.5604422288298559e-01  -3.2443886982301529e-01  -2.8810209684344168e-01  -2.9914239738361925e-01  -2.9201809636612064e-01  -2.7856848212728780e-01  -2.5744680825644778e-01  -2.2992695296071153e-01  -1.9727758531777032e-01  -1.6107179502597116e-01  -1.2295279146976527e-01  -8.4540086330349110e-02  -4.7347253620763467e-02  -1.2727718597244921e-02  1.8161507024281893e-02  4.4384473885315676e-02  6.5243680358585479e-02  8.0292399483238269e-02  8.9342731372088938e-02  9.2469275667006620e-02  9.0007643826280140e-02  8.2546011663582372e-02  7.0906314323819997e-02  5.6109588927535446e-02  3.9318611390531749e-02  2.1752609270191355e-02  4.5760122001768516e-03  -1.1224171766245015e-02  -2.4944964464217453e-02  -3.6226971665235100e-02  -4.5047828241696286e-02  -5.1654005156103029e-02  -5.6457066051114953e-02  -5.9927689983767213e-02  -6.2512497039459047e-02  -6.4583394956373663e-02  -6.6416682054839665e-02  -6.8193367115812267e-02  -7.0012029424249708e-02  -7.1907651889966506e-02  -7.3872222131895121e-02  -7.5874519750036840e-02  -7.7877694105239301e-02  -7.9853967732963396e-02  -8.1796396692448189e-02  -8.3727895019938214e-02  -8.5707945415550005e-02  -8.7837430030679564e-02  -9.0262118380134107e-02  -9.3175448079756973e-02  -9.6821481172375712e-02  -1.0149946193547636e-01  -1.0757104618068837e-01  -1.1547236549816017e-01  -1.2572280544152006e-01  -1.3892571929189362e-01  -1.5568818407427149e-01  -1.7648553996847879e-01  -2.0121788274351335e-01  -2.2909481537125029e-01  -2.5771203582832319e-01  -2.8484915473125455e-01  -3.0515007019869922e-01  -3.2023427019141865e-01  -3.1735368812010933e-01  -3.2443886982301529e-01  -2.8838058262965266e-01  -2.6797865473082161e-01  -2.7264472129550943e-01  -2.6395498338863943e-01  -2.4964656768234630e-01  -2.2880763569340387e-01  -2.0237210140878584e-01  -1.7139403584603843e-01  -1.3720347687452472e-01  -1.0124629263074908e-01  -6.4989396849993497e-02  -2.9832217675327309e-02  2.9577747240220210e-03  3.2291383868526591e-02  5.7289700388405848e-02  7.7305806239074779e-02  9.1938846824808143e-02  1.0104172538286819e-01  1.0472241096359425e-01  1.0333765475324694e-01  9.7476665118746572e-02  8.7931080096750602e-02  7.5647075574866565e-02  6.1656887549959502e-02  4.6991656900566947e-02  3.2585186558625565e-02  1.9186052079869450e-02  7.2984836552095877e-03  -2.8334390963181324e-03  -1.1197122245928700e-02  -1.7951322844464376e-02  -2.3354785676377606e-02  -2.7701817034322132e-02  -3.1274890433099133e-02  -3.4316145589821191e-02  -3.7014568984193003e-02  -3.9504234147882143e-02  -4.1869523612027316e-02  -4.4154454306559149e-02  -4.6374099613352711e-02  -4.8526748580146079e-02  -5.0605778391732650e-02  -5.2610597719249065e-02  -5.4556261589062065e-02  -5.6481665648859432e-02  -5.8456365818317695e-02  -6.0586276063847588e-02  -6.3018577007721288e-02  -6.5946444774614504e-02  -6.9614354123234690e-02  -7.4325376591986958e-02  -8.0451051117407371e-02  -8.8445565788799543e-02  -9.8851949174480119e-02  -1.1229410196180183e-01  -1.2936226064735865e-01  -1.5045256758645589e-01  -1.7524748990109584e-01  -2.0275114737020764e-01  -2.3021557326681300e-01  -2.5573640464579728e-01  -2.7361056918577953e-01  -2.8722707560994837e-01  -2.8237121351848538e-01  -2.8838058262965266e-01  -2.4925506105801801e-01  -2.5283857768299789e-01  -2.4952007917264549e-01  -2.3845266096784939e-01  -2.2239354039204856e-01  -2.0100362746559186e-01  -1.7497364763084522e-01  -1.4515629074956596e-01  -1.1264633874756783e-01  -7.8671439000015123e-02  -4.4506818174209622e-02  -1.1394403996824468e-02  1.9523366355872956e-02  4.7255176329777576e-02  7.0998603105375771e-02  9.0166250052701388e-02  1.0440215249283075e-01  1.1358952067250118e-01  1.1784977690999483e-01  1.1753168896889976e-01  1.1318849488995551e-01  1.0554061227772760e-01  9.5422556392908614e-02  8.3715557116157413e-02  7.1272000916333525e-02  5.8842630140955227e-02  4.7019804431535625e-02  3.6207700407641104e-02  2.6623250220683434e-02  1.8322955890314806e-02  1.1244702541203057e-02  5.2526586839050900e-03  1.7652303122404117e-04  -4.1589675535148767e-03  -7.9146108576385061e-03  -1.1225818602528094e-02  -1.4198197333587575e-02  -1.6907893086864505e-02  -1.9405352103788503e-02  -2.1721424086527205e-02  -2.3874893116737413e-02  -2.5880659491483760e-02  -2.7757953903924562e-02  -2.9538158821699603e-02  -3.1272009436644120e-02  -3.3036132807284922e-02  -3.4939048291605761e-02  -3.7126935696000812e-02  -3.9789714893114864e-02  -4.3168197731228389e-02  -4.7563677164829683e-02  -5.3350142842567796e-02  -6.0990382551351759e-02  -7.1039453510709102e-02  -8.4129266528155555e-02  -1.0082219773871830e-01  -1.2144138117627094e-01  -1.4548356682416655e-01  -1.7185556503901667e-01  -1.9755991585238503e-01  -2.2122696301395536e-01  -2.3661157794612125e-01  -2.4931425998723891e-01  -2.4199782435374514e-01  -2.4925506105801801e-01  -2.0856587696026380e-01  -2.4262591178768500e-01  -2.3052855127281313e-01  -2.1681301706610931e-01  -1.9863350161789606e-01  -1.7625189460701171e-01  -1.5017357909763865e-01  -1.2110654391769676e-01  -8.9956770782626830e-02  -5.7752953537947717e-02  -2.5578583691524617e-02  5.4963472328435764e-03  3.4476458190387652e-02  6.0491836893347868e-02  8.2837436678493193e-02  1.0100120075871738e-01  1.1468148180750438e-01  1.2379412280750372e-01  1.2846895823758092e-01  1.2903495666438169e-01  1.2599301525729234e-01  1.1997607828314955e-01  1.1169791840766517e-01  1.0189461854290054e-01  9.1265587121772462e-02  8.0422607895482737e-02  6.9854604935243050e-02  5.9912355722847810e-02  5.0812516402214881e-02  4.2656121278351007e-02  3.5454794813831257e-02  2.9158429019501525e-02  2.3680112147775288e-02  1.8916267238402493e-02  1.4761573321168982e-02  1.1119009779568645e-02  7.9056705684839509e-03  5.0549881171978806e-03  2.5160341179243724e-03  2.5053320969021365e-04  -1.7717450654698896e-03  -3.5786258011917026e-03  -5.2016689631541532e-03  -6.6824482390219269e-03  -8.0787245593106783e-03  -9.4704661676332878e-03  -1.0965805915208775e-02  -1.2707234879003061e-02  -1.4878578044693622e-02  -1.7713510159783345e-02  -2.1506975038421146e-02  -2.6629301249677231e-02  -3.3543937869113097e-02  -4.2808262733515116e-02  -5.5052895002037715e-02  -7.0808131880477770e-02  -9.0341717719358741e-02  -1.1300909959923318e-01  -1.3772748843479957e-01  -1.6131249784770454e-01  -1.8309211470158826e-01  -1.9601170204898413e-01  -2.0832807620902549e-01  -1.9800754107419513e-01  -2.0856587696026380e-01  -1.6787669286250972e-01  -2.3656000614282124e-01  -2.1551413741718303e-01  -1.9928241312684292e-01  -1.7896277230161176e-01  -1.5545411632966905e-01  -1.2910996442449141e-01  -1.0053434615859085e-01  -7.0484374721203488e-02  -3.9821063585293998e-02  -9.4546110369397897e-03  1.9711679606657640e-02  4.6833665784952287e-02  7.1171850394539701e-02  9.2128055372326448e-02  1.0927221193861514e-01  1.2235876685496713e-01  1.3133238858656002e-01  1.3632267977941337e-01  1.3762766167850163e-01  1.3568626476740606e-01  1.3104103418877230e-01  1.2429379325780394e-01  1.1605863367015935e-01  1.0691774686652744e-01  9.7385523048281172e-02  8.7884830402273059e-02  7.8736815505235619e-02  7.0162882455131415e-02  6.2295644249288344e-02  5.5195003467388842e-02  4.8865969950533591e-02  4.3275773002333158e-02  3.8368837803723709e-02  3.4078922450797917e-02  3.0338205248702777e-02  2.7083357733581736e-02  2.4258835186994693e-02  2.1817713273356305e-02  1.9720505188586181e-02  1.7932411005767493e-02  1.6419464017139292e-02  1.5143956275716085e-02  1.4059457617753625e-02  1.3105591490574497e-02  1.2202622716971511e-02  1.1245726459749470e-02  1.0098646736813771e-02  8.5861571203872718e-03  6.4845753517437672e-03  3.5089439768044000e-03  -7.0256124201387908e-04  -6.6077517932991462e-03  -1.4759095598382404e-02  -2.5780617055569117e-02  -4.0173385567907317e-02  -5.8175398003382672e-02  -7.9049442187771435e-02  -1.0181502534372829e-01  -1.2312754559421588e-01  -1.4312397727244458e-01  -1.5364174400656558e-01  -1.6605794171483415e-01  -1.5214799507502860e-01  -1.6787669286250972e-01  -1.2875117129087504e-01  -2.3361170128693481e-01  -2.0388990109383534e-01  -1.8550267915388144e-01  -1.6323656394747274e-01  -1.3868230597333928e-01  -1.1204774693983369e-01  -8.3858103176006005e-02  -5.4752318844567702e-02  -2.5453770896231395e-02  3.2762917720544713e-03  3.0684467165404343e-02  5.6068481202449429e-02  7.8815548627732088e-02  9.8433798366361180e-02  1.1457532334697600e-01  1.2704989055495411e-01  1.3582873724090588e-01  1.4103823705087784e-01  1.4294370684282531e-01  1.4192432228420723e-01  1.3844104619901157e-01  1.3300047271699353e-01  1.2611826413178112e-01  1.1828604530377725e-01  1.0994504135407536e-01  1.0146847002828155e-01  9.3153110488728375e-02  8.5219042703314360e-02  7.7815632270831506e-02  7.1031535139615951e-02  6.4906663622322586e-02  5.9444482777915343e-02  5.4623470124162091e-02  5.0406993388088545e-02  4.6751182030364408e-02  4.3610628299667192e-02  4.0941939649709942e-02  3.8705315518636971e-02  3.6864413341829889e-02  3.5384826868475293e-02  3.4231494275368514e-02  3.3365329132257655e-02  3.2739283725421474e-02  3.2293973346180650e-02  3.1952855631454356e-02  3.1616822552650761e-02  3.1157871896212982e-02  3.0411258790045456e-02  2.9165348677048938e-02  2.7147790271423906e-02  2.4008782931956633e-02  1.9300728630287263e-02  1.2480741697436848e-02  2.9331076103948162e-03  -9.8221584841559958e-03  -2.6021345929945601e-02  -4.4879771599140833e-02  -6.5585912443669306e-02  -8.4633190199832550e-02  -1.0303680428532616e-01  -1.1123633895399322e-01  -1.2420134579763631e-01  -1.0611773949113994e-01  -1.2875117129087504e-01  -9.2692884097512404e-02  -2.3282991104499653e-01  -1.9499999866237530e-01  -1.7488130949961542e-01  -1.5093203499087182e-01  -1.2549395217538495e-01  -9.8628655172215446e-02  -7.0799297288752880e-02  -4.2545827072232159e-02  -1.4475701617283530e-02  1.2777435629313902e-02  3.8591291614045266e-02  6.2390373963855134e-02  8.3677248629810241e-02  1.0205801406121087e-01  1.1726070209889661e-01  1.2914568454086400e-01  1.3770757502519146e-01  1.4306859468813218e-01  1.4546394964366716e-01  1.4522042880412217e-01  1.4273013026305570e-01  1.3842179175139635e-01  1.3273249172114007e-01  1.2608235123989125e-01  1.1885429897854091e-01  1.1138008366956702e-01  1.0393275102802232e-01  9.6724978055130126e-02  8.9912106784577769e-02  8.3598490602937003e-02  7.7845778664628273e-02  7.2681947786714718e-02  6.8110130473843525e-02  6.4116558274566318e-02  6.0677172044739242e-02  5.7762670314095849e-02  5.5341928362692278e-02  5.3383861828840355e-02  5.1857890173418547e-02  5.0733210747795396e-02  4.9977100937856199e-02  4.9552445575753681e-02  4.9414632845703237e-02  4.9507883172430607e-02  4.9760969360825191e-02  5.0082147847935340e-02  5.0352943053672397e-02  5.0420157046431886e-02  5.0085307981434755e-02  4.9090103486946493e-02  4.7098828598876999e-02  4.3676837863039934e-02  3.8293054107667784e-02  3.0339148289610374e-02  1.9345435259510015e-02  5.0524794616975191e-03  -1.1744293664588934e-02  -3.0440444289462902e-02  -4.7350648667882966e-02  -6.4402560636316789e-02  -7.0387327189990273e-02  -8.4320412497396843e-02  -6.1502894731797229e-02  -9.2692884097512404e-02  -6.1087531037542137e-02  -2.3346957578168340e-01  -1.8828742000101600e-01  -1.6681585996457718e-01  -1.4143487169256161e-01  -1.1527559565621585e-01  -8.8254039872855086e-02  -6.0783297035205887e-02  -3.3316704916104500e-02  -6.3613896921142559e-03  1.9559572534132551e-02  4.3937884800105353e-02  6.6308880989857683e-02  8.6276505041752438e-02  1.0353328962560135e-01  1.1787434551969921e-01  1.2920468422723400e-01  1.3753956819486216e-01  1.4299803571001102e-01  1.4579023847061959e-01  1.4619976188188394e-01  1.4456254326724330e-01  1.4124432722919694e-01  1.3661866427762120e-01  1.3104727117556295e-01  1.2486413184105344e-01  1.1836412891337816e-01  1.117963865