<?xml version="1.0"?>
<VTKFile type="UnstructuredGrid"  version="0.1"  >
<UnstructuredGrid>
<Piece  NumberOfPoints="4225" NumberOfCells="8192">
<Points>
<DataArray  type="Float64"  NumberOfComponents="3"  format="ascii">-1 -1 0  -0.96875 -1 0  -0.9375 -1 0  -0.90625 -1 0  -0.875 -1 0  -0.84375 -1 0  -0.8125 -1 0  -0.78125 -1 0  -0.75 -1 0  -0.71875 -1 0  -0.6875 -1 0  -0.65625 -1 0  -0.625 -1 0  -0.59375 -1 0  -0.5625 -1 0  -0.53125 -1 0  -0.5 -1 0  -0.46875 -1 0  -0.4375 -1 0  -0.40625 -1 0  -0.375 -1 0  -0.34375 -1 0  -0.3125 -1 0  -0.28125 -1 0  -0.25 -1 0  -0.21875 -1 0  -0.1875 -1 0  -0.15625 -1 0  -0.125 -1 0  -0.09375 -1 0  -0.0625 -1 0  -0.03125 -1 0  0 -1 0  0.03125 -1 0  0.0625 -1 0  0.09375 -1 0  0.125 -1 0  0.15625 -1 0  0.1875 -1 0  0.21875 -1 0  0.25 -1 0  0.28125 -1 0  0.3125 -1 0  0.34375 -1 0  0.375 -1 0  0.40625 -1 0  0.4375 -1 0  0.46875 -1 0  0.5 -1 0  0.53125 -1 0  0.5625 -1 0  0.59375 -1 0  0.625 -1 0  0.65625 -1 0  0.6875 -1 0  0.71875 -1 0  0.75 -1 0  0.78125 -1 0  0.8125 -1 0  0.84375 -1 0  0.875 -1 0  0.90625 -1 0  0.9375 -1 0  0.96875 -1 0  1 -1 0  -1 -0.96875 0  -0.96875 -0.96875 0  -0.9375 -0.96875 0  -0.90625 -0.96875 0  -0.875 -0.96875 0  -0.84375 -0.96875 0  -0.8125 -0.96875 0  -0.78125 -0.96875 0  -0.75 -0.96875 0  -0.71875 -0.96875 0  -0.6875 -0.96875 0  -0.65625 -0.96875 0  -0.625 -0.96875 0  -0.59375 -0.96875 0  -0.5625 -0.96875 0  -0.53125 -0.96875 0  -0.5 -0.96875 0  -0.46875 -0.96875 0  -0.4375 -0.96875 0  -0.40625 -0.96875 0  -0.375 -0.96875 0  -0.34375 -0.96875 0  -0.3125 -0.96875 0  -0.28125 -0.96875 0  -0.25 -0.96875 0  -0.21875 -0.96875 0  -0.1875 -0.96875 0  -0.15625 -0.96875 0  -0.125 -0.96875 0  -0.09375 -0.96875 0  -0.0625 -0.96875 0  -0.03125 -0.96875 0  0 -0.96875 0  0.03125 -0.96875 0  0.0625 -0.96875 0  0.09375 -0.96875 0  0.125 -0.96875 0  0.15625 -0.96875 0  0.1875 -0.96875 0  0.21875 -0.96875 0  0.25 -0.96875 0  0.28125 -0.96875 0  0.3125 -0.96875 0  0.34375 -0.96875 0  0.375 -0.96875 0  0.40625 -0.96875 0  0.4375 -0.96875 0  0.46875 -0.96875 0  0.5 -0.96875 0  0.53125 -0.96875 0  0.5625 -0.96875 0  0.59375 -0.96875 0  0.625 -0.96875 0  0.65625 -0.96875 0  0.6875 -0.96875 0  0.71875 -0.96875 0  0.75 -0.96875 0  0.78125 -0.96875 0  0.8125 -0.96875 0  0.84375 -0.96875 0  0.875 -0.96875 0  0.90625 -0.96875 0  0.9375 -0.96875 0  0.96875 -0.96875 0  1 -0.96875 0  -1 -0.9375 0  -0.96875 -0.9375 0  -0.9375 -0.9375 0  -0.90625 -0.9375 0  -0.875 -0.9375 0  -0.84375 -0.9375 0  -0.8125 -0.9375 0  -0.78125 -0.9375 0  -0.75 -0.9375 0  -0.71875 -0.9375 0  -0.6875 -0.9375 0  -0.65625 -0.9375 0  -0.625 -0.9375 0  -0.59375 -0.9375 0  -0.5625 -0.9375 0  -0.53125 -0.9375 0  -0.5 -0.9375 0  -0.46875 -0.9375 0  -0.4375 -0.9375 0  -0.40625 -0.9375 0  -0.375 -0.9375 0  -0.34375 -0.9375 0  -0.3125 -0.9375 0  -0.28125 -0.9375 0  -0.25 -0.9375 0  -0.21875 -0.9375 0  -0.1875 -0.9375 0  -0.15625 -0.9375 0  -0.125 -0.9375 0  -0.09375 -0.9375 0  -0.0625 -0.9375 0  -0.03125 -0.9375 0  0 -0.9375 0  0.03125 -0.9375 0  0.0625 -0.9375 0  0.09375 -0.9375 0  0.125 -0.9375 0  0.15625 -0.9375 0  0.1875 -0.9375 0  0.21875 -0.9375 0  0.25 -0.9375 0  0.28125 -0.9375 0  0.3125 -0.9375 0  0.34375 -0.9375 0  0.375 -0.9375 0  0.40625 -0.9375 0  0.4375 -0.9375 0  0.46875 -0.9375 0  0.5 -0.9375 0  0.53125 -0.9375 0  0.5625 -0.9375 0  0.59375 -0.9375 0  0.625 -0.9375 0  0.65625 -0.9375 0  0.6875 -0.9375 0  0.71875 -0.9375 0  0.75 -0.9375 0  0.78125 -0.9375 0  0.8125 -0.9375 0  0.84375 -0.9375 0  0.875 -0.9375 0  0.90625 -0.9375 0  0.9375 -0.9375 0  0.96875 -0.9375 0  1 -0.9375 0  -1 -0.90625 0  -0.96875 -0.90625 0  -0.9375 -0.90625 0  -0.90625 -0.90625 0  -0.875 -0.90625 0  -0.84375 -0.90625 0  -0.8125 -0.90625 0  -0.78125 -0.90625 0  -0.75 -0.90625 0  -0.71875 -0.90625 0  -0.6875 -0.90625 0  -0.65625 -0.90625 0  -0.625 -0.90625 0  -0.59375 -0.90625 0  -0.5625 -0.90625 0  -0.53125 -0.90625 0  -0.5 -0.90625 0  -0.46875 -0.90625 0  -0.4375 -0.90625 0  -0.40625 -0.90625 0  -0.375 -0.90625 0  -0.34375 -0.90625 0  -0.3125 -0.90625 0  -0.28125 -0.90625 0  -0.25 -0.90625 0  -0.21875 -0.90625 0  -0.1875 -0.90625 0  -0.15625 -0.90625 0  -0.125 -0.90625 0  -0.09375 -0.90625 0  -0.0625 -0.90625 0  -0.03125 -0.90625 0  0 -0.90625 0  0.03125 -0.90625 0  0.0625 -0.90625 0  0.09375 -0.90625 0  0.125 -0.90625 0  0.15625 -0.90625 0  0.1875 -0.90625 0  0.21875 -0.90625 0  0.25 -0.90625 0  0.28125 -0.90625 0  0.3125 -0.90625 0  0.34375 -0.90625 0  0.375 -0.90625 0  0.40625 -0.90625 0  0.4375 -0.90625 0  0.46875 -0.90625 0  0.5 -0.90625 0  0.53125 -0.90625 0  0.5625 -0.90625 0  0.59375 -0.90625 0  0.625 -0.90625 0  0.65625 -0.90625 0  0.6875 -0.90625 0  0.71875 -0.90625 0  0.75 -0.90625 0  0.78125 -0.90625 0  0.8125 -0.90625 0  0.84375 -0.90625 0  0.875 -0.90625 0  0.90625 -0.90625 0  0.9375 -0.90625 0  0.96875 -0.90625 0  1 -0.90625 0  -1 -0.875 0  -0.96875 -0.875 0  -0.9375 -0.875 0  -0.90625 -0.875 0  -0.875 -0.875 0  -0.84375 -0.875 0  -0.8125 -0.875 0  -0.78125 -0.875 0  -0.75 -0.875 0  -0.71875 -0.875 0  -0.6875 -0.875 0  -0.65625 -0.875 0  -0.625 -0.875 0  -0.59375 -0.875 0  -0.5625 -0.875 0  -0.53125 -0.875 0  -0.5 -0.875 0  -0.46875 -0.875 0  -0.4375 -0.875 0  -0.40625 -0.875 0  -0.375 -0.875 0  -0.34375 -0.875 0  -0.3125 -0.875 0  -0.28125 -0.875 0  -0.25 -0.875 0  -0.21875 -0.875 0  -0.1875 -0.875 0  -0.15625 -0.875 0  -0.125 -0.875 0  -0.09375 -0.875 0  -0.0625 -0.875 0  -0.03125 -0.875 0  0 -0.875 0  0.03125 -0.875 0  0.0625 -0.875 0  0.09375 -0.875 0  0.125 -0.875 0  0.15625 -0.875 0  0.1875 -0.875 0  0.21875 -0.875 0  0.25 -0.875 0  0.28125 -0.875 0  0.3125 -0.875 0  0.34375 -0.875 0  0.375 -0.875 0  0.40625 -0.875 0  0.4375 -0.875 0  0.46875 -0.875 0  0.5 -0.875 0  0.53125 -0.875 0  0.5625 -0.875 0  0.59375 -0.875 0  0.625 -0.875 0  0.65625 -0.875 0  0.6875 -0.875 0  0.71875 -0.875 0  0.75 -0.875 0  0.78125 -0.875 0  0.8125 -0.875 0  0.84375 -0.875 0  0.875 -0.875 0  0.90625 -0.875 0  0.9375 -0.875 0  0.96875 -0.875 0  1 -0.875 0  -1 -0.84375 0  -0.96875 -0.84375 0  -0.9375 -0.84375 0  -0.90625 -0.84375 0  -0.875 -0.84375 0  -0.84375 -0.84375 0  -0.8125 -0.84375 0  -0.78125 -0.84375 0  -0.75 -0.84375 0  -0.71875 -0.84375 0  -0.6875 -0.84375 0  -0.65625 -0.84375 0  -0.625 -0.84375 0  -0.59375 -0.84375 0  -0.5625 -0.84375 0  -0.53125 -0.84375 0  -0.5 -0.84375 0  -0.46875 -0.84375 0  -0.4375 -0.84375 0  -0.40625 -0.84375 0  -0.375 -0.84375 0  -0.34375 -0.84375 0  -0.3125 -0.84375 0  -0.28125 -0.84375 0  -0.25 -0.84375 0  -0.21875 -0.84375 0  -0.1875 -0.84375 0  -0.15625 -0.84375 0  -0.125 -0.84375 0  -0.09375 -0.84375 0  -0.0625 -0.84375 0  -0.03125 -0.84375 0  0 -0.84375 0  0.03125 -0.84375 0  0.0625 -0.84375 0  0.09375 -0.84375 0  0.125 -0.84375 0  0.15625 -0.84375 0  0.1875 -0.84375 0  0.21875 -0.84375 0  0.25 -0.84375 0  0.28125 -0.84375 0  0.3125 -0.84375 0  0.34375 -0.84375 0  0.375 -0.84375 0  0.40625 -0.84375 0  0.4375 -0.84375 0  0.46875 -0.84375 0  0.5 -0.84375 0  0.53125 -0.84375 0  0.5625 -0.84375 0  0.59375 -0.84375 0  0.625 -0.84375 0  0.65625 -0.84375 0  0.6875 -0.84375 0  0.71875 -0.84375 0  0.75 -0.84375 0  0.78125 -0.84375 0  0.8125 -0.84375 0  0.84375 -0.84375 0  0.875 -0.84375 0  0.90625 -0.84375 0  0.9375 -0.84375 0  0.96875 -0.84375 0  1 -0.84375 0  -1 -0.8125 0  -0.96875 -0.8125 0  -0.9375 -0.8125 0  -0.90625 -0.8125 0  -0.875 -0.8125 0  -0.84375 -0.8125 0  -0.8125 -0.8125 0  -0.78125 -0.8125 0  -0.75 -0.8125 0  -0.71875 -0.8125 0  -0.6875 -0.8125 0  -0.65625 -0.8125 0  -0.625 -0.8125 0  -0.59375 -0.8125 0  -0.5625 -0.8125 0  -0.53125 -0.8125 0  -0.5 -0.8125 0  -0.46875 -0.8125 0  -0.4375 -0.8125 0  -0.40625 -0.8125 0  -0.375 -0.8125 0  -0.34375 -0.8125 0  -0.3125 -0.8125 0  -0.28125 -0.8125 0  -0.25 -0.8125 0  -0.21875 -0.8125 0  -0.1875 -0.8125 0  -0.15625 -0.8125 0  -0.125 -0.8125 0  -0.09375 -0.8125 0  -0.0625 -0.8125 0  -0.03125 -0.8125 0  0 -0.8125 0  0.03125 -0.8125 0  0.0625 -0.8125 0  0.09375 -0.8125 0  0.125 -0.8125 0  0.15625 -0.8125 0  0.1875 -0.8125 0  0.21875 -0.8125 0  0.25 -0.8125 0  0.28125 -0.8125 0  0.3125 -0.8125 0  0.34375 -0.8125 0  0.375 -0.8125 0  0.40625 -0.8125 0  0.4375 -0.8125 0  0.46875 -0.8125 0  0.5 -0.8125 0  0.53125 -0.8125 0  0.5625 -0.8125 0  0.59375 -0.8125 0  0.625 -0.8125 0  0.65625 -0.8125 0  0.6875 -0.8125 0  0.71875 -0.8125 0  0.75 -0.8125 0  0.78125 -0.8125 0  0.8125 -0.8125 0  0.84375 -0.8125 0  0.875 -0.8125 0  0.90625 -0.8125 0  0.9375 -0.8125 0  0.96875 -0.8125 0  1 -0.8125 0  -1 -0.78125 0  -0.96875 -0.78125 0  -0.9375 -0.78125 0  -0.90625 -0.78125 0  -0.875 -0.78125 0  -0.84375 -0.78125 0  -0.8125 -0.78125 0  -0.78125 -0.78125 0  -0.75 -0.78125 0  -0.71875 -0.78125 0  -0.6875 -0.78125 0  -0.65625 -0.78125 0  -0.625 -0.78125 0  -0.59375 -0.78125 0  -0.5625 -0.78125 0  -0.53125 -0.78125 0  -0.5 -0.78125 0  -0.46875 -0.78125 0  -0.4375 -0.78125 0  -0.40625 -0.78125 0  -0.375 -0.78125 0  -0.34375 -0.78125 0  -0.3125 -0.78125 0  -0.28125 -0.78125 0  -0.25 -0.78125 0  -0.21875 -0.78125 0  -0.1875 -0.78125 0  -0.15625 -0.78125 0  -0.125 -0.78125 0  -0.09375 -0.78125 0  -0.0625 -0.78125 0  -0.03125 -0.78125 0  0 -0.78125 0  0.03125 -0.78125 0  0.0625 -0.78125 0  0.09375 -0.78125 0  0.125 -0.78125 0  0.15625 -0.78125 0  0.1875 -0.78125 0  0.21875 -0.78125 0  0.25 -0.78125 0  0.28125 -0.78125 0  0.3125 -0.78125 0  0.34375 -0.78125 0  0.375 -0.78125 0  0.40625 -0.78125 0  0.4375 -0.78125 0  0.46875 -0.78125 0  0.5 -0.78125 0  0.53125 -0.78125 0  0.5625 -0.78125 0  0.59375 -0.78125 0  0.625 -0.78125 0  0.65625 -0.78125 0  0.6875 -0.78125 0  0.71875 -0.78125 0  0.75 -0.78125 0  0.78125 -0.78125 0  0.8125 -0.78125 0  0.84375 -0.78125 0  0.875 -0.78125 0  0.90625 -0.78125 0  0.9375 -0.78125 0  0.96875 -0.78125 0  1 -0.78125 0  -1 -0.75 0  -0.96875 -0.75 0  -0.9375 -0.75 0  -0.90625 -0.75 0  -0.875 -0.75 0  -0.84375 -0.75 0  -0.8125 -0.75 0  -0.78125 -0.75 0  -0.75 -0.75 0  -0.71875 -0.75 0  -0.6875 -0.75 0  -0.65625 -0.75 0  -0.625 -0.75 0  -0.59375 -0.75 0  -0.5625 -0.75 0  -0.53125 -0.75 0  -0.5 -0.75 0  -0.46875 -0.75 0  -0.4375 -0.75 0  -0.40625 -0.75
[...]
<PointData  Scalars="f_15"> 
<DataArray  type="Float64"  Name="f_15"  format="ascii">-4.3187799700973678e-01  -4.2772878970345846e-01  -4.1544061949450145e-01  -3.9548571387271114e-01  -3.6863092867029240e-01  -3.3590827822223751e-01  -2.9857527563419151e-01  -2.5806660725902342e-01  -2.1593899850486833e-01  -1.7381138975071325e-01  -1.3330272137554522e-01  -9.5969718787499103e-02  -6.3247068339444157e-02  -3.6392283137025513e-02  -1.6437377515235108e-02  -4.1492073062782886e-03  0.0000000000000000e+00  -4.1492073062782886e-03  -1.6437377515235132e-02  -3.6392283137025534e-02  -6.3247068339444198e-02  -9.5969718787499173e-02  -1.3330272137554536e-01  -1.7381138975071336e-01  -2.1593899850486839e-01  -2.5806660725902342e-01  -2.9857527563419145e-01  -3.3590827822223757e-01  -3.6863092867029240e-01  -3.9548571387271114e-01  -4.1544061949450156e-01  -4.2772878970345846e-01  -4.3187799700973678e-01  -4.2772878970345846e-01  -4.1544061949450156e-01  -3.9548571387271114e-01  -3.6863092867029240e-01  -3.3590827822223757e-01  -2.9857527563419145e-01  -2.5806660725902342e-01  -2.1593899850486839e-01  -1.7381138975071336e-01  -1.3330272137554536e-01  -9.5969718787499173e-02  -6.3247068339444198e-02  -3.6392283137025534e-02  -1.6437377515235132e-02  -4.1492073062782886e-03  0.0000000000000000e+00  -4.1492073062782886e-03  -1.6437377515235108e-02  -3.6392283137025513e-02  -6.3247068339444157e-02  -9.5969718787499103e-02  -1.3330272137554522e-01  -1.7381138975071325e-01  -2.1593899850486833e-01  -2.5806660725902342e-01  -2.9857527563419151e-01  -3.3590827822223751e-01  -3.6863092867029240e-01  -3.9548571387271114e-01  -4.1544061949450145e-01  -4.2772878970345846e-01  -4.3187799700973678e-01  -4.2772878970345846e-01  -3.5849768996216597e-01  -3.5251641614050022e-01  -3.3451111399527533e-01  -3.0793315531937138e-01  -2.7290111685694407e-01  -2.3077472733504753e-01  -1.8331641171263122e-01  -1.3246265781292751e-01  -8.0179795318485514e-02  -2.8369706683650658e-02  2.1194997197768243e-02  6.6916928467510614e-02  1.0740753389420325e-01  1.4151226204367276e-01  1.6832943508786380e-01  1.8722391472042663e-01  1.9783605043340910e-01  2.0008612737983722e-01  1.9417431750716790e-01  1.8057596697302616e-01  1.6003162400692358e-01  1.3353045699226337e-01  1.0228422725503387e-01  6.7686805426747904e-02  3.1251869605592800e-02  -5.4789458929714657e-03  -4.1060034223757702e-02  -7.4286942328820119e-02  -1.0433222456175210e-01  -1.3082787795638806e-01  -1.5385691369954735e-01  -1.7384812142771433e-01  -1.9140854850712738e-01  -2.0715225606392446e-01  -2.2157683138205084e-01  -2.3500940442691240e-01  -2.4761214426547751e-01  -2.5942017688921953e-01  -2.7038512304018109e-01  -2.8040855830901668e-01  -2.8936208473274777e-01  -2.9709901247175369e-01  -3.0346491204368231e-01  -3.0831247845039705e-01  -3.1152215891494345e-01  -3.1302629068823923e-01  -3.1283178952447793e-01  -3.1103565311754716e-01  -3.0782821348780548e-01  -3.0348163202871153e-01  -2.9832457760122905e-01  -2.9271043496764160e-01  -2.8699120843522219e-01  -2.8152486819196593e-01  -2.7672568846416601e-01  -2.7320908368232233e-01  -2.7186534613285351e-01  -2.7408133327918083e-01  -2.8099300159333052e-01  -2.9443826901159798e-01  -3.1165244881632354e-01  -3.3973082163042662e-01  -3.4655716208846493e-01  -4.2772878970345846e-01  -4.1544061949450145e-01  -3.3729510040796018e-01  -3.5677733558502700e-01  -3.4473324978093617e-01  -3.2430723145049978e-01  -2.9496646341743837e-01  -2.5858958720052583e-01  -2.1706356011009414e-01  -1.7236569607669497e-01  -1.2644824230979720e-01  -8.1162383471229685e-02  -3.8206132992230961e-02  9.1275267636393791e-04  3.4905922942996645e-02  6.2729032462226345e-02  8.3602465024511477e-02  9.7027440293826969e-02  1.0279639154369183e-01  1.0099666263500386e-01  9.2007062221193925e-02  7.6487153211737977e-02  5.5359170257103615e-02  2.9781465389567812e-02  1.1101206590434858e-03  -2.9158106807207047e-02  -5.9470981262941612e-02  -8.8341250422360004e-02  -1.1449740904836571e-01  -1.3703838644113447e-01  -1.5554595979364177e-01  -1.7010803600058613e-01  -1.8123386342275766e-01  -1.8968595367334545e-01  -1.9628566121294833e-01  -2.0175079755277112e-01  -2.0659954160667993e-01  -2.1112447991607500e-01  -2.1541989395163363e-01  -2.1943797327306167e-01  -2.2305232692994786e-01  -2.2611436676720448e-01  -2.2849598689375605e-01  -2.3011742146252984e-01  -2.3096200752580712e-01  -2.3108014132117405e-01  -2.3058467397411389e-01  -2.2963980377697987e-01  -2.2844586820501148e-01  -2.2722266489084533e-01  -2.2619409980552904e-01  -2.2557672144169796e-01  -2.2557420433354797e-01  -2.2638121189940474e-01  -2.2819817842990331e-01  -2.3126992840500216e-01  -2.3593132304037931e-01  -2.4271371157770477e-01  -2.5231030407301208e-01  -2.6576917090037067e-01  -2.8348824701568975e-01  -3.0646645114712390e-01  -3.2983166593648855e-01  -3.5911225432203858e-01  -3.5640334972362453e-01  -4.1544061949450145e-01  -3.9548571387271114e-01  -3.1233008779677057e-01  -3.3120609750053909e-01  -3.1897344594201194e-01  -3.0083896821999756e-01  -2.7348773300602375e-01  -2.3887840038863692e-01  -1.9867496226856096e-01  -1.5476689953373196e-01  -1.0908953122486424e-01  -6.3525986259674899e-02  -1.9831007949861364e-02  2.0422963469883263e-02  5.5883833383570697e-02  8.5447264744933638e-02  1.0827688855591419e-01  1.2381906581377844e-01  1.3181288311086120e-01  1.3229551269311760e-01  1.2560269133024035e-01  1.1236342844401036e-01  9.3486658487144700e-02  7.0135125577063279e-02  4.3678752660912805e-02  1.5617985090570410e-02  -1.2529334299423163e-02  -3.9372779036179854e-02  -6.3802753567395898e-02  -8.5113016907117117e-02  -1.0305176843454139e-01  -1.1778186828554872e-01  -1.2976468246830383e-01  -1.3960845442897923e-01  -1.4792656520950170e-01  -1.5523609929983972e-01  -1.6190614660665059e-01  -1.6814950002311468e-01  -1.7404405885642232e-01  -1.7956939045792639e-01  -1.8464664930508318e-01  -1.8917424821309001e-01  -1.9305573096502787e-01  -1.9621932104909567e-01  -1.9863025156728856e-01  -2.0029753087412300e-01  -2.0127666516304893e-01  -2.0166951840551395e-01  -2.0162210437669698e-01  -2.0132090771611297e-01  -2.0098821309644541e-01  -2.0087735777030097e-01  -2.0126898419212064e-01  -2.0247207432186340e-01  -2.0483034259296895e-01  -2.0874878846277067e-01  -2.1471232921443276e-01  -2.2336781442487266e-01  -2.3539115010445322e-01  -2.5167771037471287e-01  -2.7196444977196249e-01  -2.9671114899669465e-01  -3.1900329485454659e-01  -3.4565388211372267e-01  -3.3386312473846436e-01  -3.9548571387271114e-01  -3.6863092867029240e-01  -2.9204618741423921e-01  -3.0703166174875640e-01  -2.9596919927479820e-01  -2.7927192934889389e-01  -2.5425560802429931e-01  -2.2269246198799658e-01  -1.8591685506134067e-01  -1.4559784639212764e-01  -1.0349473811875493e-01  -6.1361594993218346e-02  -2.0857468063664199e-02  1.6521084239874691e-02  4.9488749365480908e-02  7.7005683946164527e-02  9.8301178210585871e-02  1.1288949981226597e-01  1.2057925319535097e-01  1.2147645223414116e-01  1.1598037967289694e-01  1.0477006450510253e-01  8.8777533642755216e-02  6.9142441792054574e-02  4.7142392403780951e-02  2.4096439596994316e-02  1.2472936469426763e-03  -2.0360576467851516e-02  -3.9980139671540287e-02  -5.7211482502703095e-02  -7.1988285570125043e-02  -8.4508336662270644e-02  -9.5132558081095914e-02  -1.0428191701604259e-01  -1.1235435678281000e-01  -1.1967165442162006e-01  -1.2645568058440571e-01  -1.3282787278270886e-01  -1.3882399633573295e-01  -1.4441691574107077e-01  -1.4954162996084089e-01  -1.5411871516066999e-01  -1.5807401880561056e-01  -1.6135386675868568e-01  -1.6393589383832219e-01  -1.6583607672925937e-01  -1.6711261556797255e-01  -1.6786732511362673e-01  -1.6824511986427892e-01  -1.6843224865312931e-01  -1.6865395644399217e-01  -1.6917271370002973e-01  -1.7028794072995768e-01  -1.7234085753760794e-01  -1.7572258347490935e-01  -1.8090148604844891e-01  -1.8842670801809649e-01  -1.9900065922468804e-01  -2.1324203910461817e-01  -2.3190561797461423e-01  -2.5407312241264007e-01  -2.7993276896428076e-01  -3.0072326946947942e-01  -3.2579990405337139e-01  -3.0785286500718151e-01  -3.6863092867029240e-01  -3.3590827822223751e-01  -2.7777197417098959e-01  -2.8462583225210236e-01  -2.7172813479636720e-01  -2.5394216613801673e-01  -2.2938593922626899e-01  -1.9920617136029917e-01  -1.6444373399416479e-01  -1.2647761484885120e-01  -8.6815723529065733e-02  -4.7016816860252671e-02  -8.5981336489146746e-03  2.7040807457832636e-02  5.8678700446780960e-02  8.5317614066201822e-02  1.0621498933691198e-01  1.2090471164113789e-01  1.2920877245944182e-01  1.3123977968067155e-01  1.2739319116711018e-01  1.1832664482075647e-01  1.0492271518676760e-01  8.8231502342525595e-02  6.9391934826116178e-02  4.9536075742828617e-02  2.9688214203011581e-02  1.0676753885446184e-02  -6.9223658197120575e-03  -2.2799050182620229e-02  -3.6880054415393229e-02  -4.9270222202486898e-02  -6.0182180031853466e-02  -6.9870804331010214e-02  -7.8582471475412460e-02  -8.6522321194050927e-02  -9.3838216762776927e-02  -1.0061790180311400e-01  -1.0689545954488584e-01  -1.1266342513433869e-01  -1.1788755525734526e-01  -1.2252190078694757e-01  -1.2652265082020731e-01  -1.2985985873224595e-01  -1.3252678818573604e-01  -1.3454691555413004e-01  -1.3597889119346801e-01  -1.3691977600893163e-01  -1.3750696709605520e-01  -1.3791922575025534e-01  -1.3837733846918787e-01  -1.3914537008372579e-01  -1.4053318377339008e-01  -1.4290398988625388e-01  -1.4668318487144172e-01  -1.5238725005507789e-01  -1.6061207674631189e-01  -1.7210133236891184e-01  -1.8739234265415775e-01  -2.0710856213506476e-01  -2.2966158849538584e-01  -2.5524299023487113e-01  -2.7329172379687583e-01  -2.9678629017409958e-01  -2.7210648716767549e-01  -3.3590827822223751e-01  -2.9857527563419151e-01  -2.6968921286972319e-01  -2.6653903028890535e-01  -2.5110642695648328e-01  -2.3150016592339698e-01  -2.0655909564117853e-01  -1.7709074865783267e-01  -1.4394079880605082e-01  -1.0821697037731770e-01  -7.1170108869479942e-02  -3.4124982261939683e-02  1.6024654399335440e-03  3.4778577525340713e-02  6.4315092917480374e-02  8.9319215759732118e-02  1.0913033910315241e-01  1.2334402944665866e-01  1.3182381922346659e-01  1.3470070641676854e-01  1.3235932602322642e-01  1.2540914687076210e-01  1.1463923546951980e-01  1.0095680579981768e-01  8.5313064740493216e-02  6.8624182360686584e-02  5.1698771254827323e-02  3.5183901216628524e-02  1.9538162907826461e-02  5.0335698005667673e-03  -8.2189334651360593e-03  -2.0229990990293351e-02  -3.1088489827728823e-02  -4.0922059213977201e-02  -4.9865645302342158e-02  -5.8039558444061834e-02  -6.5536561737780302e-02  -7.2416764435934561e-02  -7.8708675001381054e-02  -8.4414718996866464e-02  -8.9519507284934755e-02  -9.3999394396628522e-02  -9.7832112528753859e-02  -1.0100570926237425e-01  -1.0352630922885227e-01  -1.0542457338029390e-01  -1.0676085438448778e-01  -1.0762924393348523e-01  -1.0816071648234019e-01  -1.0852577303486342e-01  -1.0893698862742969e-01  -1.0965250361071770e-01  -1.1098087889122997e-01  -1.1329149082172103e-01  -1.1702455424911981e-01  -1.2272303598407898e-01  -1.3100527934893941e-01  -1.4263516301910761e-01  -1.5804299697866539e-01  -1.7774928424919592e-01  -1.9952588271790678e-01  -2.2389706001820914e-01  -2.3851894940252269e-01  -2.6082358099418562e-01  -2.2946608978451777e-01  -2.9857527563419151e-01  -2.5806660725902342e-01  -2.6680794054534324e-01  -2.5295283926202328e-01  -2.3475624800929593e-01  -2.1286624462262652e-01  -1.8695028862946053e-01  -1.5756806839534265e-01  -1.2539324926473958e-01  -9.1317537476103675e-02  -5.6368534962383469e-02  -2.1648865194687152e-02  1.1730900042617710e-02  4.2716528545693730e-02  7.0368717702928310e-02  9.3912169868581002e-02  1.1277315626991001e-01  1.2660443979884523e-01  1.3529692208457736e-01  1.3897745721774454e-01  1.3799225602658652e-01  1.3287564897869614e-01  1.2430502246322568e-01  1.1304468841485404e-01  9.9883886251955309e-02  8.5576260788271394e-02  7.0788827705044910e-02  5.6066976988994113e-02  4.1818650505645788e-02  2.8316737233804706e-02  1.5715438476052602e-02  4.0748668065471588e-03  -6.6115887276518839e-03  -1.6391255992632078e-02  -2.5330082199025487e-02  -3.3495684305127373e-02  -4.0945873600633134e-02  -4.7722387640687577e-02  -5.3849165000996749e-02  -5.9334244901375621e-02  -6.4174255658481824e-02  -6.8360469281416342e-02  -7.1885540139385737e-02  -7.4750254586346973e-02  -7.6969852647441508e-02  -7.8579692897660383e-02  -7.9640202076554950e-02  -8.0241172770515151e-02  -8.0505589365462871e-02  -8.0593297194098690e-02  -8.0704936249776676e-02  -8.1087160466439073e-02  -8.2039447929911496e-02  -8.3927014114826878e-02  -8.7191795405170816e-02  -9.2387680095903299e-02  -1.0013668034570890e-01  -1.1120756745916482e-01  -1.2590922827863157e-01  -1.4470677421541278e-01  -1.6478634881700302e-01  -1.8731449332631087e-01  -1.9810290781322140e-01  -2.1969513514931116e-01  -1.8148229202283964e-01  -2.5806660725902342e-01  -2.1593899850486833e-01  -2.6768632724702635e-01  -2.4318135393990437e-01  -2.2255665336226149e-01  -1.9850503825085747e-01  -1.7156955423868614e-01  -1.4209249742746394e-01  -1.1063229521065271e-01  -7.7921227483092284e-02  -4.4806388175760929e-02  -1.2199568162646685e-02  1.8977448916806392e-02  4.7846967424107711e-02  7.3625628408641133e-02  9.5667609709905010e-02  1.1349825056402767e-01  1.2683621815245782e-01  1.3560301407601030e-01  1.3991915780774905e-01  1.4008707017855782e-01  1.3656152843403038e-01  1.2990984844214265e-01  1.2076534506676782e-01  1.0977894216672617e-01  9.7574336508821746e-02  8.4711645288466975e-02  7.1662829049560367e-02  5.8799955131749210e-02  4.6395176689117523e-02  3.4629793465123730e-02  2.3609151002488948e-02  1.3380264080121588e-02  3.9496415317774392e-03  -4.7005349903026612e-03  -1.2599037238834463e-02  -1.9775658035952597e-02  -2.6254855060391619e-02  -3.2052777777488738e-02  -3.7177172473391529e-02  -4.1629539146885011e-02  -4.5408827357286449e-02  -4.8516050007751159e-02  -5.0959269176504361e-02  -5.2758602423325765e-02  -5.3951000674917989e-02  -5.4594730607060951e-02  -5.4773574012691333e-02  -5.4600904318165402e-02  -5.4223935148464575e-02  -5.3828563167765076e-02  -5.3645860014378578e-02  -5.3960392350715147e-02  -5.5125256921376216e-02  -5.7573662902218749e-02  -6.1857588172203964e-02  -6.8587707595111652e-02  -7.8527869174859724e-02  -9.1864192129056943e-02  -1.0906728587929253e-01  -1.2680624626403628e-01  -1.4714976832052870e-01  -1.5396044417624744e-01  -1.7536406233211205e-01  -1.3016013410467780e-01  -2.1593899850486833e-01  -1.7381138975071325e-01  -2.7101647028597670e-01  -2.3633010572819491e-01  -2.1382697829246161e-01  -1.8790751100916214e-01  -1.6008375941557854e-01  -1.3049753824551566e-01  -9.9623622635114872e-02  -6.8066375165409684e-02  -3.6526700230990604e-02  -5.7573298776006469e-03  2.3482836664650571e-02  5.0473254147101812e-02  7.4573077733979809e-02  9.5256852054572252e-02  1.1214227242631632e-01  1.2500820901791548e-01  1.3380177042497468e-01  1.3863393226857673e-01  1.3976406838783353e-01  1.3757472463897585e-01  1.3253895901392221e-01  1.2518350590358124e-01  1.1605152761430412e-01  1.0566871593282035e-01  9.4515807851558067e-02  8.3009428853215925e-02  7.1491796343716135e-02  6.0228594604769363e-02  4.9413474239143627e-02  3.9177211592102003e-02  2.9599537859438491e-02  2.0721849721926089e-02  1.2559378233220366e-02  5.1117675637984659e-03  -1.6285676144135264e-03  -7.6706061099008436e-03  -1.3021373010153556e-02  -1.7684844814338577e-02  -2.1662695282288976e-02  -2.4956435727966644e-02  -2.7570482289421223e-02  -2.9515778345449242e-02  -3.0813657245569826e-02  -3.1499777419794830e-02  -3.1628028993248521e-02  -3.1274456623558995e-02  -3.0541322174109247e-02  -2.9561636428299516e-02  -2.8504559504118197e-02  -2.7582788247187556e-02  -2.7061973759410534e-02  -2.7277411153455208e-02  -2.8645922499751661e-02  -3.1707867619555824e-02  -3.7052387993563494e-02  -4.5434536804728080e-02  -5.6929064800672037e-02  -7.2076176189637492e-02  -8.7101052665811154e-02  -1.0516085837473915e-01  -1.0804802046213977e-01  -1.2977157284295551e-01  -7.7462169715144844e-02  -1.7381138975071325e-01  -1.3330272137554522e-01  -2.7585826748882081e-01  -2.3164542445635394e-01  -2.0783449914792884e-01  -1.8037739447978646e-01  -1.5186096138670901e-01  -1.2222988770534000e-01  -9.1898883243231796e-02  -6.1368266605759024e-02  -3.1219159385475672e-02  -2.0714728322882331e-03  2.5453951304063669e-02  5.0771894620456670e-02  7.3366178114564862e-02  9.2818108209635888e-02  1.0882823156560778e-01  1.2122999294924043e-01  1.2999441246123006e-01  1.3522554394309014e-01  1.3714724958500754e-01  1.3608260620135593e-01  1.3242799232568769e-01  1.2662441797255619e-01  1.1912887301291018e-01  1.1038827676919601e-01  1.0081808020356628e-01  9.0786777794255161e-02  8.0606735140031319e-02  7.0530967448651505e-02  6.0754940632057781e-02  5.1422140500445732e-02  4.2632049335425783e-02  3.4449241883851366e-02  2.6912491715651247e-02  2.0043035753963743e-02  1.3851412052211019e-02  8.3425617865353682e-03  3.5191114424392043e-03  -6.1705429448454571e-04  -4.0647023389083665e-03  -6.8243392720544948e-03  -8.9001768689196421e-03  -1.0302687089736707e-02  -1.1051537714417824e-02  -1.1178753556081469e-02  -1.0732056314727356e-02  -9.7784140463396986e-03  -8.4079569147867596e-03  -6.7385762329778302e-03  -4.9216405254122195e-03  -3.1499446803106741e-03  -1.6678962549612803e-03  -7.8938116672478407e-04  -9.0982416962000928e-04  -2.5513341572911599e-03  -6.2762280205136047e-03  -1.2831549074893322e-02  -2.2201934421134370e-02  -3.5053111657941310e-02  -4.7237251569938313e-02  -6.3100702156444297e-02  -6.2264770318841832e-02  -8.4764538163585618e-02  -2.5285693253053278e-02  -1.3330272137554522e-01  -9.5969718787499103e-02  -2.8160634978455984e-01  -2.2858940467312916e-01  -2.0395334258794945e-01  -1.7524005485298988e-01  -1.4619833599354032e-01  -1.1657858128715418e-01  -8.6755699247591897e-02  -5.7142658262511047e-02  -2.8219767928203576e-02  -4.9452283280634120e-04  2.5529304651336723e-02  4.9381524198738549e-02  7.0652177694336765e-02  8.9013762361587409e-02  1.0423780548210237e-01  1.1620483177456525e-01  1.2490717321361663e-01  1.3044459541822909e-01  1.3301330334366046e-01  1.3288945944066929e-01  1.3040883826030100e-01  1.2594454619393808e-01  1.1988481483566506e-01  1.1261270351009958e-01  1.0448915521171072e-01  9.5840325884795408e-02  8.6949531476608333e-02  7.8053644842516964e-02  6.9343360044481259e-02  6.0966488951139021e-02  5.3033330935757655e-02  4.5623173909855215e-02  3.8791077725580950e-02  3.2574263058621725e-02  2.6997610462418831e-02  2.2077977054365271e-02  1.7827204762667134e-02  1.4253845744797738e-02  1.1363726391340831e-02  9.1595357402500105e-03  7.6396419773569219e-03  6.7963289138242853e-03  6.6136078607752112e-03  7.0647022957845270e-03  8.1092342504310751e-03  9.6900526870544058e-03  1.1729540275205126e-02  1.4125061659541084e-02  1.6743112388590560e-02  1.9411042138715872e-02  2.1906370470375126e-02  2.3938152753954490e-02  2.5134693924556174e-02  2.4995671885961138e-02  2.2986303509157740e-02  1.8364112146956359e-02  1.1207641415304528e-02  6.8780188307723605e-04  -8.7409348722099333e-03  -2.2627488089690406e-02  -1.8376260811007548e-02  -4.2039470042878585e-02  2.4605568710372030e-02  -9.5969718787499103e-02  -6.3247068339444157e-02  -2.8784674548872963e-01  -2.2679300513542636e-01  -2.0168206522933105e-01  -1.7192469691728149e-01  -1.4247837517830717e-01  -1.1290153308183982e-01  -8.3545341502425263e-02  -5.4748213850622264e-02  -2.6904675144505799e-02  -4.2612259447946405e-04  2.4283531013678101e-02  4.6851957742778040e-02  6.6959391003084109e-02  8.4355754865300156e-02  9.8873066405406856e-02  1.1043249803528349e-01  1.1904580538093582e-01  1.2481123283974668e-01  1.2790441966208829e-01  1.2856524494696386e-01  1.2708185026633528e-01  1.2377327992646912e-01  1.1897219360145186e-01  1.1300897465498282e-01  1.0619828088677911e-01  9.882871916