<?xml version="1.0"?>
<VTKFile type="UnstructuredGrid"  version="0.1"  >
<UnstructuredGrid>
<Piece  NumberOfPoints="4225" NumberOfCells="8192">
<Points>
<DataArray  type="Float64"  NumberOfComponents="3"  format="ascii">-1 -1 0  -0.96875 -1 0  -0.9375 -1 0  -0.90625 -1 0  -0.875 -1 0  -0.84375 -1 0  -0.8125 -1 0  -0.78125 -1 0  -0.75 -1 0  -0.71875 -1 0  -0.6875 -1 0  -0.65625 -1 0  -0.625 -1 0  -0.59375 -1 0  -0.5625 -1 0  -0.53125 -1 0  -0.5 -1 0  -0.46875 -1 0  -0.4375 -1 0  -0.40625 -1 0  -0.375 -1 0  -0.34375 -1 0  -0.3125 -1 0  -0.28125 -1 0  -0.25 -1 0  -0.21875 -1 0  -0.1875 -1 0  -0.15625 -1 0  -0.125 -1 0  -0.09375 -1 0  -0.0625 -1 0  -0.03125 -1 0  0 -1 0  0.03125 -1 0  0.0625 -1 0  0.09375 -1 0  0.125 -1 0  0.15625 -1 0  0.1875 -1 0  0.21875 -1 0  0.25 -1 0  0.28125 -1 0  0.3125 -1 0  0.34375 -1 0  0.375 -1 0  0.40625 -1 0  0.4375 -1 0  0.46875 -1 0  0.5 -1 0  0.53125 -1 0  0.5625 -1 0  0.59375 -1 0  0.625 -1 0  0.65625 -1 0  0.6875 -1 0  0.71875 -1 0  0.75 -1 0  0.78125 -1 0  0.8125 -1 0  0.84375 -1 0  0.875 -1 0  0.90625 -1 0  0.9375 -1 0  0.96875 -1 0  1 -1 0  -1 -0.96875 0  -0.96875 -0.96875 0  -0.9375 -0.96875 0  -0.90625 -0.96875 0  -0.875 -0.96875 0  -0.84375 -0.96875 0  -0.8125 -0.96875 0  -0.78125 -0.96875 0  -0.75 -0.96875 0  -0.71875 -0.96875 0  -0.6875 -0.96875 0  -0.65625 -0.96875 0  -0.625 -0.96875 0  -0.59375 -0.96875 0  -0.5625 -0.96875 0  -0.53125 -0.96875 0  -0.5 -0.96875 0  -0.46875 -0.96875 0  -0.4375 -0.96875 0  -0.40625 -0.96875 0  -0.375 -0.96875 0  -0.34375 -0.96875 0  -0.3125 -0.96875 0  -0.28125 -0.96875 0  -0.25 -0.96875 0  -0.21875 -0.96875 0  -0.1875 -0.96875 0  -0.15625 -0.96875 0  -0.125 -0.96875 0  -0.09375 -0.96875 0  -0.0625 -0.96875 0  -0.03125 -0.96875 0  0 -0.96875 0  0.03125 -0.96875 0  0.0625 -0.96875 0  0.09375 -0.96875 0  0.125 -0.96875 0  0.15625 -0.96875 0  0.1875 -0.96875 0  0.21875 -0.96875 0  0.25 -0.96875 0  0.28125 -0.96875 0  0.3125 -0.96875 0  0.34375 -0.96875 0  0.375 -0.96875 0  0.40625 -0.96875 0  0.4375 -0.96875 0  0.46875 -0.96875 0  0.5 -0.96875 0  0.53125 -0.96875 0  0.5625 -0.96875 0  0.59375 -0.96875 0  0.625 -0.96875 0  0.65625 -0.96875 0  0.6875 -0.96875 0  0.71875 -0.96875 0  0.75 -0.96875 0  0.78125 -0.96875 0  0.8125 -0.96875 0  0.84375 -0.96875 0  0.875 -0.96875 0  0.90625 -0.96875 0  0.9375 -0.96875 0  0.96875 -0.96875 0  1 -0.96875 0  -1 -0.9375 0  -0.96875 -0.9375 0  -0.9375 -0.9375 0  -0.90625 -0.9375 0  -0.875 -0.9375 0  -0.84375 -0.9375 0  -0.8125 -0.9375 0  -0.78125 -0.9375 0  -0.75 -0.9375 0  -0.71875 -0.9375 0  -0.6875 -0.9375 0  -0.65625 -0.9375 0  -0.625 -0.9375 0  -0.59375 -0.9375 0  -0.5625 -0.9375 0  -0.53125 -0.9375 0  -0.5 -0.9375 0  -0.46875 -0.9375 0  -0.4375 -0.9375 0  -0.40625 -0.9375 0  -0.375 -0.9375 0  -0.34375 -0.9375 0  -0.3125 -0.9375 0  -0.28125 -0.9375 0  -0.25 -0.9375 0  -0.21875 -0.9375 0  -0.1875 -0.9375 0  -0.15625 -0.9375 0  -0.125 -0.9375 0  -0.09375 -0.9375 0  -0.0625 -0.9375 0  -0.03125 -0.9375 0  0 -0.9375 0  0.03125 -0.9375 0  0.0625 -0.9375 0  0.09375 -0.9375 0  0.125 -0.9375 0  0.15625 -0.9375 0  0.1875 -0.9375 0  0.21875 -0.9375 0  0.25 -0.9375 0  0.28125 -0.9375 0  0.3125 -0.9375 0  0.34375 -0.9375 0  0.375 -0.9375 0  0.40625 -0.9375 0  0.4375 -0.9375 0  0.46875 -0.9375 0  0.5 -0.9375 0  0.53125 -0.9375 0  0.5625 -0.9375 0  0.59375 -0.9375 0  0.625 -0.9375 0  0.65625 -0.9375 0  0.6875 -0.9375 0  0.71875 -0.9375 0  0.75 -0.9375 0  0.78125 -0.9375 0  0.8125 -0.9375 0  0.84375 -0.9375 0  0.875 -0.9375 0  0.90625 -0.9375 0  0.9375 -0.9375 0  0.96875 -0.9375 0  1 -0.9375 0  -1 -0.90625 0  -0.96875 -0.90625 0  -0.9375 -0.90625 0  -0.90625 -0.90625 0  -0.875 -0.90625 0  -0.84375 -0.90625 0  -0.8125 -0.90625 0  -0.78125 -0.90625 0  -0.75 -0.90625 0  -0.71875 -0.90625 0  -0.6875 -0.90625 0  -0.65625 -0.90625 0  -0.625 -0.90625 0  -0.59375 -0.90625 0  -0.5625 -0.90625 0  -0.53125 -0.90625 0  -0.5 -0.90625 0  -0.46875 -0.90625 0  -0.4375 -0.90625 0  -0.40625 -0.90625 0  -0.375 -0.90625 0  -0.34375 -0.90625 0  -0.3125 -0.90625 0  -0.28125 -0.90625 0  -0.25 -0.90625 0  -0.21875 -0.90625 0  -0.1875 -0.90625 0  -0.15625 -0.90625 0  -0.125 -0.90625 0  -0.09375 -0.90625 0  -0.0625 -0.90625 0  -0.03125 -0.90625 0  0 -0.90625 0  0.03125 -0.90625 0  0.0625 -0.90625 0  0.09375 -0.90625 0  0.125 -0.90625 0  0.15625 -0.90625 0  0.1875 -0.90625 0  0.21875 -0.90625 0  0.25 -0.90625 0  0.28125 -0.90625 0  0.3125 -0.90625 0  0.34375 -0.90625 0  0.375 -0.90625 0  0.40625 -0.90625 0  0.4375 -0.90625 0  0.46875 -0.90625 0  0.5 -0.90625 0  0.53125 -0.90625 0  0.5625 -0.90625 0  0.59375 -0.90625 0  0.625 -0.90625 0  0.65625 -0.90625 0  0.6875 -0.90625 0  0.71875 -0.90625 0  0.75 -0.90625 0  0.78125 -0.90625 0  0.8125 -0.90625 0  0.84375 -0.90625 0  0.875 -0.90625 0  0.90625 -0.90625 0  0.9375 -0.90625 0  0.96875 -0.90625 0  1 -0.90625 0  -1 -0.875 0  -0.96875 -0.875 0  -0.9375 -0.875 0  -0.90625 -0.875 0  -0.875 -0.875 0  -0.84375 -0.875 0  -0.8125 -0.875 0  -0.78125 -0.875 0  -0.75 -0.875 0  -0.71875 -0.875 0  -0.6875 -0.875 0  -0.65625 -0.875 0  -0.625 -0.875 0  -0.59375 -0.875 0  -0.5625 -0.875 0  -0.53125 -0.875 0  -0.5 -0.875 0  -0.46875 -0.875 0  -0.4375 -0.875 0  -0.40625 -0.875 0  -0.375 -0.875 0  -0.34375 -0.875 0  -0.3125 -0.875 0  -0.28125 -0.875 0  -0.25 -0.875 0  -0.21875 -0.875 0  -0.1875 -0.875 0  -0.15625 -0.875 0  -0.125 -0.875 0  -0.09375 -0.875 0  -0.0625 -0.875 0  -0.03125 -0.875 0  0 -0.875 0  0.03125 -0.875 0  0.0625 -0.875 0  0.09375 -0.875 0  0.125 -0.875 0  0.15625 -0.875 0  0.1875 -0.875 0  0.21875 -0.875 0  0.25 -0.875 0  0.28125 -0.875 0  0.3125 -0.875 0  0.34375 -0.875 0  0.375 -0.875 0  0.40625 -0.875 0  0.4375 -0.875 0  0.46875 -0.875 0  0.5 -0.875 0  0.53125 -0.875 0  0.5625 -0.875 0  0.59375 -0.875 0  0.625 -0.875 0  0.65625 -0.875 0  0.6875 -0.875 0  0.71875 -0.875 0  0.75 -0.875 0  0.78125 -0.875 0  0.8125 -0.875 0  0.84375 -0.875 0  0.875 -0.875 0  0.90625 -0.875 0  0.9375 -0.875 0  0.96875 -0.875 0  1 -0.875 0  -1 -0.84375 0  -0.96875 -0.84375 0  -0.9375 -0.84375 0  -0.90625 -0.84375 0  -0.875 -0.84375 0  -0.84375 -0.84375 0  -0.8125 -0.84375 0  -0.78125 -0.84375 0  -0.75 -0.84375 0  -0.71875 -0.84375 0  -0.6875 -0.84375 0  -0.65625 -0.84375 0  -0.625 -0.84375 0  -0.59375 -0.84375 0  -0.5625 -0.84375 0  -0.53125 -0.84375 0  -0.5 -0.84375 0  -0.46875 -0.84375 0  -0.4375 -0.84375 0  -0.40625 -0.84375 0  -0.375 -0.84375 0  -0.34375 -0.84375 0  -0.3125 -0.84375 0  -0.28125 -0.84375 0  -0.25 -0.84375 0  -0.21875 -0.84375 0  -0.1875 -0.84375 0  -0.15625 -0.84375 0  -0.125 -0.84375 0  -0.09375 -0.84375 0  -0.0625 -0.84375 0  -0.03125 -0.84375 0  0 -0.84375 0  0.03125 -0.84375 0  0.0625 -0.84375 0  0.09375 -0.84375 0  0.125 -0.84375 0  0.15625 -0.84375 0  0.1875 -0.84375 0  0.21875 -0.84375 0  0.25 -0.84375 0  0.28125 -0.84375 0  0.3125 -0.84375 0  0.34375 -0.84375 0  0.375 -0.84375 0  0.40625 -0.84375 0  0.4375 -0.84375 0  0.46875 -0.84375 0  0.5 -0.84375 0  0.53125 -0.84375 0  0.5625 -0.84375 0  0.59375 -0.84375 0  0.625 -0.84375 0  0.65625 -0.84375 0  0.6875 -0.84375 0  0.71875 -0.84375 0  0.75 -0.84375 0  0.78125 -0.84375 0  0.8125 -0.84375 0  0.84375 -0.84375 0  0.875 -0.84375 0  0.90625 -0.84375 0  0.9375 -0.84375 0  0.96875 -0.84375 0  1 -0.84375 0  -1 -0.8125 0  -0.96875 -0.8125 0  -0.9375 -0.8125 0  -0.90625 -0.8125 0  -0.875 -0.8125 0  -0.84375 -0.8125 0  -0.8125 -0.8125 0  -0.78125 -0.8125 0  -0.75 -0.8125 0  -0.71875 -0.8125 0  -0.6875 -0.8125 0  -0.65625 -0.8125 0  -0.625 -0.8125 0  -0.59375 -0.8125 0  -0.5625 -0.8125 0  -0.53125 -0.8125 0  -0.5 -0.8125 0  -0.46875 -0.8125 0  -0.4375 -0.8125 0  -0.40625 -0.8125 0  -0.375 -0.8125 0  -0.34375 -0.8125 0  -0.3125 -0.8125 0  -0.28125 -0.8125 0  -0.25 -0.8125 0  -0.21875 -0.8125 0  -0.1875 -0.8125 0  -0.15625 -0.8125 0  -0.125 -0.8125 0  -0.09375 -0.8125 0  -0.0625 -0.8125 0  -0.03125 -0.8125 0  0 -0.8125 0  0.03125 -0.8125 0  0.0625 -0.8125 0  0.09375 -0.8125 0  0.125 -0.8125 0  0.15625 -0.8125 0  0.1875 -0.8125 0  0.21875 -0.8125 0  0.25 -0.8125 0  0.28125 -0.8125 0  0.3125 -0.8125 0  0.34375 -0.8125 0  0.375 -0.8125 0  0.40625 -0.8125 0  0.4375 -0.8125 0  0.46875 -0.8125 0  0.5 -0.8125 0  0.53125 -0.8125 0  0.5625 -0.8125 0  0.59375 -0.8125 0  0.625 -0.8125 0  0.65625 -0.8125 0  0.6875 -0.8125 0  0.71875 -0.8125 0  0.75 -0.8125 0  0.78125 -0.8125 0  0.8125 -0.8125 0  0.84375 -0.8125 0  0.875 -0.8125 0  0.90625 -0.8125 0  0.9375 -0.8125 0  0.96875 -0.8125 0  1 -0.8125 0  -1 -0.78125 0  -0.96875 -0.78125 0  -0.9375 -0.78125 0  -0.90625 -0.78125 0  -0.875 -0.78125 0  -0.84375 -0.78125 0  -0.8125 -0.78125 0  -0.78125 -0.78125 0  -0.75 -0.78125 0  -0.71875 -0.78125 0  -0.6875 -0.78125 0  -0.65625 -0.78125 0  -0.625 -0.78125 0  -0.59375 -0.78125 0  -0.5625 -0.78125 0  -0.53125 -0.78125 0  -0.5 -0.78125 0  -0.46875 -0.78125 0  -0.4375 -0.78125 0  -0.40625 -0.78125 0  -0.375 -0.78125 0  -0.34375 -0.78125 0  -0.3125 -0.78125 0  -0.28125 -0.78125 0  -0.25 -0.78125 0  -0.21875 -0.78125 0  -0.1875 -0.78125 0  -0.15625 -0.78125 0  -0.125 -0.78125 0  -0.09375 -0.78125 0  -0.0625 -0.78125 0  -0.03125 -0.78125 0  0 -0.78125 0  0.03125 -0.78125 0  0.0625 -0.78125 0  0.09375 -0.78125 0  0.125 -0.78125 0  0.15625 -0.78125 0  0.1875 -0.78125 0  0.21875 -0.78125 0  0.25 -0.78125 0  0.28125 -0.78125 0  0.3125 -0.78125 0  0.34375 -0.78125 0  0.375 -0.78125 0  0.40625 -0.78125 0  0.4375 -0.78125 0  0.46875 -0.78125 0  0.5 -0.78125 0  0.53125 -0.78125 0  0.5625 -0.78125 0  0.59375 -0.78125 0  0.625 -0.78125 0  0.65625 -0.78125 0  0.6875 -0.78125 0  0.71875 -0.78125 0  0.75 -0.78125 0  0.78125 -0.78125 0  0.8125 -0.78125 0  0.84375 -0.78125 0  0.875 -0.78125 0  0.90625 -0.78125 0  0.9375 -0.78125 0  0.96875 -0.78125 0  1 -0.78125 0  -1 -0.75 0  -0.96875 -0.75 0  -0.9375 -0.75 0  -0.90625 -0.75 0  -0.875 -0.75 0  -0.84375 -0.75 0  -0.8125 -0.75 0  -0.78125 -0.75 0  -0.75 -0.75 0  -0.71875 -0.75 0  -0.6875 -0.75 0  -0.65625 -0.75 0  -0.625 -0.75 0  -0.59375 -0.75 0  -0.5625 -0.75 0  -0.53125 -0.75 0  -0.5 -0.75 0  -0.46875 -0.75 0  -0.4375 -0.75 0  -0.40625 -0.75
[...]
<PointData  Scalars="f_15"> 
<DataArray  type="Float64"  Name="f_15"  format="ascii">-4.8617971687698919e-01  -4.8150881341027502e-01  -4.6767560321088569e-01  -4.4521168878903028e-01  -4.1498034577803194e-01  -3.7814334773587094e-01  -3.3611631983888152e-01  -2.9051433720011560e-01  -2.4308985843849454e-01  -1.9566537967687353e-01  -1.5006339703810753e-01  -1.0803636914111804e-01  -7.1199371098957118e-02  -4.0968028087958824e-02  -1.8504113666103311e-02  -4.6709034667140820e-03  0.0000000000000000e+00  -4.6709034667140820e-03  -1.8504113666103335e-02  -4.0968028087958852e-02  -7.1199371098957187e-02  -1.0803636914111810e-01  -1.5006339703810770e-01  -1.9566537967687364e-01  -2.4308985843849459e-01  -2.9051433720011560e-01  -3.3611631983888146e-01  -3.7814334773587105e-01  -4.1498034577803194e-01  -4.4521168878903028e-01  -4.6767560321088575e-01  -4.8150881341027502e-01  -4.8617971687698919e-01  -4.8150881341027502e-01  -4.6767560321088575e-01  -4.4521168878903028e-01  -4.1498034577803194e-01  -3.7814334773587105e-01  -3.3611631983888146e-01  -2.9051433720011560e-01  -2.4308985843849459e-01  -1.9566537967687364e-01  -1.5006339703810770e-01  -1.0803636914111810e-01  -7.1199371098957187e-02  -4.0968028087958852e-02  -1.8504113666103335e-02  -4.6709034667140820e-03  0.0000000000000000e+00  -4.6709034667140820e-03  -1.8504113666103311e-02  -4.0968028087958824e-02  -7.1199371098957118e-02  -1.0803636914111804e-01  -1.5006339703810753e-01  -1.9566537967687353e-01  -2.4308985843849454e-01  -2.9051433720011560e-01  -3.3611631983888152e-01  -3.7814334773587094e-01  -4.1498034577803194e-01  -4.4521168878903028e-01  -4.6767560321088569e-01  -4.8150881341027502e-01  -4.8617971687698919e-01  -4.8150881341027502e-01  -3.8006687673946538e-01  -2.9331493797349650e-01  -1.8553417593885307e-01  -6.8775507197420607e-02  5.2363009830533574e-02  1.7463997220479924e-01  2.9540830697171366e-01  4.1224533206767933e-01  5.2282886767212089e-01  6.2491770975425009e-01  7.1638429551186367e-01  7.9527263936068837e-01  8.5986591974518611e-01  9.0875361785672260e-01  9.4089082630069776e-01  9.5564451938300132e-01  9.5282288302162454e-01  9.3268555770297112e-01  8.9593379008165419e-01  8.4368117007056342e-01  7.7740664573584461e-01  6.9889293766584060e-01  6.1015408527547377e-01  5.1335665384325724e-01  4.1073901170801841e-01  3.0453303558672595e-01  1.9689179139331328e-01  8.9826058345748958e-02  -1.4848417861454110e-02  -1.1555175757488285e-01  -2.1096831628734666e-01  -3.0006247207940845e-01  -3.8208197644563208e-01  -4.5654939930852756e-01  -5.2324246681880482e-01  -5.8216473724093931e-01  -6.3350845995759786e-01  -6.7761224251469276e-01  -7.1491635731971803e-01  -7.4591894794920810e-01  -7.7113595723474215e-01  -7.9106736380052689e-01  -8.0617121094738697e-01  -8.1684619143484949e-01  -8.2342224492771232e-01  -8.2615803752144745e-01  -8.2524330742831364e-01  -8.2080414912504918e-01  -8.1290921540601868e-01  -8.0157572980096592e-01  -7.8677482220186312e-01  -7.6843720409492366e-01  -7.4646061472087299e-01  -7.2072479511929666e-01  -6.9110770991421511e-01  -6.5755484859118685e-01  -6.2003204722155203e-01  -5.7904044095385843e-01  -5.3438326551653070e-01  -4.9017318992931558e-01  -4.4076560362306622e-01  -4.1703280492712730e-01  -3.6134029111956861e-01  -4.8150881341027502e-01  -4.6767560321088569e-01  -3.9857422704918705e-01  -3.3732358241123062e-01  -2.6019151643338678e-01  -1.7825010144470660e-01  -9.3013730477097226e-02  -6.8524110752401180e-03  7.8201770014777627e-02  1.6031271146218237e-01  2.3779051622325986e-01  3.0907524042234463e-01  3.7274595567815411e-01  4.2754318564958549e-01  4.7239716204902538e-01  5.0645640036833928e-01  5.2911287841103027e-01  5.4002083595209793e-01  5.3910745246992486e-01  5.2657410975316510e-01  5.0288809889624775e-01  4.6876501483022637e-01  4.2514307678306129e-01  3.7315073470102705e-01  3.1406947594032542e-01  2.4929347474877661e-01  1.8028786136734326e-01  1.0854688038764597e-01  3.5553138387107594e-02  -3.7261223790001907e-02  -1.0855059953789134e-01  -1.7708849247008518e-01  -2.4179581049322812e-01  -3.0176405571255632e-01  -3.5627268896223419e-01  -4.0479999979149417e-01  -4.4702715041924990e-01  -4.8283518409658710e-01  -5.1229526223754440e-01  -5.3565242315971628e-01  -5.5330357413504994e-01  -5.6577028807753360e-01  -5.7366737597819928e-01  -5.7766803157850433e-01  -5.7846682714188191e-01  -5.7674178818364652e-01  -5.7311738294909254e-01  -5.6813021738474234e-01  -5.6219972664833262e-01  -5.5560584197306850e-01  -5.4847578111552153e-01  -5.4078140603285141e-01  -5.3234839922449062e-01  -5.2287774154619859e-01  -5.1197931155622811e-01  -4.9921987870181422e-01  -4.8417453868836680e-01  -4.6653218372167687e-01  -4.4606192607509876e-01  -4.2319985458480436e-01  -3.9755122708377988e-01  -3.7387972073893100e-01  -3.4340888861102625e-01  -3.4591717951928824e-01  -2.7711193468718431e-01  -4.6767560321088569e-01  -4.4521168878903028e-01  -4.3270014400226253e-01  -3.5259964907131036e-01  -2.7261546687006050e-01  -1.8853900121683373e-01  -1.0221549015007347e-01  -1.5537151547249915e-02  6.9801751071054838e-02  1.5218650491798344e-01  2.3007408174815128e-01  3.0199816840632016e-01  3.6658873770717143e-01  4.2260231078113963e-01  4.6895794443205752e-01  5.0477422785667814e-01  5.2940304687294626e-01  5.4245661462423089e-01  5.4382492263885907e-01  5.3368181566178785e-01  5.1247883317638887e-01  4.8092711596357401e-01  4.3996857632485054e-01  3.9073840596369097e-01  3.3452144442684162e-01  2.7270520600744180e-01  2.0673219652676644e-01  1.3805387837504940e-01  6.8088097722512744e-02  -1.8187336014540789e-03  -7.0423922475219156e-02  -1.3661485728763667e-01  -1.9942932201670982e-01  -2.5806979172352690e-01  -3.1191178014560983e-01  -3.6050636612192338e-01  -4.0357704606265488e-01  -4.4101117092159853e-01  -4.7284631447548103e-01  -4.9925213997103285e-01  -5.2050845382463429e-01  -5.3698038033042050e-01  -5.4909165536064197e-01  -5.5729723064578296e-01  -5.6205634380172598e-01  -5.6380726845014018e-01  -5.6294480447973227e-01  -5.5980153461184856e-01  -5.5463361822032797e-01  -5.4761183146064196e-01  -5.3881830278604703e-01  -5.2824941456042851e-01  -5.1582518574036207e-01  -5.0140569791827716e-01  -4.8481454566257493e-01  -4.6587310117668396e-01  -4.4443328541031224e-01  -4.2046982697849539e-01  -3.9399742729355852e-01  -3.6572961622873429e-01  -3.3513987800612938e-01  -3.0779504515164552e-01  -2.7108825618895632e-01  -2.7537752727341680e-01  -1.6972040511820238e-01  -4.4521168878903028e-01  -4.1498034577803194e-01  -4.7554393219005658e-01  -3.7741884021756988e-01  -3.0313651970358668e-01  -2.2394392589782286e-01  -1.4475234819051166e-01  -6.6177488860901953e-02  1.0485807762120975e-02  8.3994929469325949e-02  1.5312803664007080e-01  2.1672361184825328e-01  2.7370614147112587e-01  3.2311375921979063e-01  3.6412550908437535e-01  3.9608664324394199e-01  4.1853002730889083e-01  4.3119205553066309e-01  4.3402180974026061e-01  4.2718280655534896e-01  4.1104709163120340e-01  3.8618207297447005e-01  3.5333077548372849e-01  3.1338665932289311e-01  2.6736424085946331e-01  2.1636695948042761e-01  1.6155363082015611e-01  1.0410482689174844e-01  4.5190316329036632e-02  -1.4061385319619570e-02  -7.2590532473201491e-02  -1.2943000843050081e-01  -1.8372497807790872e-01  -2.3474790449598368e-01  -2.8190864290810080e-01  -3.2475948572236285e-01  -3.6299515308489366e-01  -3.9644793640130410e-01  -4.2507830582567979e-01  -4.4896150332979745e-01  -4.6827071347984872e-01  -4.8325757903921485e-01  -4.9423084207210327e-01  -5.0153401881916082e-01  -5.0552297642734378e-01  -5.0654439200703183e-01  -5.0491598653398584e-01  -5.0090950045647431e-01  -4.9473727020990083e-01  -4.8654327617216209e-01  -4.7639937451669206e-01  -4.6430737402306582e-01  -4.5020740707872664e-01  -4.3399312165558057e-01  -4.1553332350131988e-01  -3.9470367793631711e-01  -3.7141318797139500e-01  -3.4569415480793725e-01  -3.1757831186493435e-01  -2.8783403538200869e-01  -2.5557951116786409e-01  -2.2703830159089083e-01  -1.8562258985809121e-01  -1.9294727596960895e-01  -5.3147300379997743e-02  -4.1498034577803194e-01  -3.7814334773587094e-01  -5.2021801746868990e-01  -4.0326959142967506e-01  -3.3292840734826529e-01  -2.5523970114516320e-01  -1.7964081253088457e-01  -1.0527492918491937e-01  -3.3259606911362392e-02  3.5492060216832065e-02  1.0000166822193420e-01  1.5931974605134056e-01  2.1255224229044911e-01  2.5889144570984907e-01  2.9764306549488595e-01  3.2825041464562948e-01  3.5031476787533994e-01  3.6361071271354961e-01  3.6809561487966119e-01  3.6391242867642104e-01  3.5138569882154957e-01  3.3101081848150748e-01  3.0343725874923755e-01  2.6944663785030304e-01  2.2992695019718160e-01  1.8584422017426558e-01  1.3821302221214854e-01  8.8067072134062563e-02  3.6431058973992424e-02  -1.5705430142237777e-02  -6.7411143650768529e-02  -1.1783305899745591e-01  -1.6621255100653173e-01  -2.1189758875112610e-01  -2.5435082797043906e-01  -2.9315352872038980e-01  -3.2800539346991059e-01  -3.5872043921793184e-01  -3.8521923464649027e-01  -4.0751783559167226e-01  -4.2571399428556972e-01  -4.3997117199148322e-01  -4.5050111776851759e-01  -4.5754568137599511e-01  -4.6135873791652465e-01  -4.6218892968000236e-01  -4.6026410640512821e-01  -4.5577812723159244e-01  -4.4888081118623935e-01  -4.3967155350788911e-01  -4.2819720916338949e-01  -4.1445456308285994e-01  -3.9839776385376863e-01  -3.7995093296611732e-01  -3.5902545710442008e-01  -3.3554557976863952e-01  -3.0946462472503689e-01  -2.8084921713901134e-01  -2.4971118896217212e-01  -2.1683075378586517e-01  -1.8091244689420030e-01  -1.4888275605224496e-01  -1.0015538717940158e-01  -1.0832997611239822e-01  6.6784125321325744e-02  -3.7814334773587094e-01  -3.3611631983888152e-01  -5.6367516642626647e-01  -4.2838428780212195e-01  -3.6284727626232571e-01  -2.8698121146023436e-01  -2.1507780005535004e-01  -1.4487076131349019e-01  -7.7436762260635950e-02  -1.3392482762431162e-02  4.6491845378280570e-02  1.0146455337269102e-01  1.5080792436089061e-01  1.9387195856395173e-01  2.3009930489311906e-01  2.5904666724101016e-01  2.8040182818527204e-01  2.9399606988289090e-01  2.9981145710001833e-01  2.9798282465715248e-01  2.8879432354849610e-01  2.7267087597891959e-01  2.5016491730119728e-01  2.2193923338983723e-01  1.8874665912843336e-01  1.5140768313086861e-01  1.1078685047125196e-01  6.7768978290406304e-02  2.3235990983186048e-02  -2.1954813639291172e-02  -6.6990460205568383e-02  -1.1111940930666070e-01  -1.5366569425137444e-01  -1.9403979730297624e-01  -2.3174606978668494e-01  -2.6638665113457072e-01  -2.9766188053003734e-01  -3.2536739259403097e-01  -3.4938807898013829e-01  -3.6968932679633382e-01  -3.8630588941065230e-01  -3.9932898884361129e-01  -4.0889213322845130e-01  -4.1515636578026599e-01  -4.1829549702376306e-01  -4.1848208321719338e-01  -4.1587469115304698e-01  -4.1060717549003301e-01  -4.0278042211257836e-01  -3.9245717156954041e-01  -3.7966021544694262e-01  -3.6437438859185950e-01  -3.4655242000080538e-01  -3.2612494593908481e-01  -3.0301373692263806e-01  -2.7715208085140736e-01  -2.4849207741325172e-01  -2.1708538291931168e-01  -1.8287439747469122e-01  -1.4661166651694227e-01  -1.0655831129290476e-01  -7.0406994197217701e-02  -1.3573431198178122e-02  -2.2043781454106706e-02  1.8803677550652140e-01  -3.3611631983888152e-01  -2.9051433720011560e-01  -6.0449968218484906e-01  -4.5144477574028524e-01  -3.9136836183254703e-01  -3.1715930314389174e-01  -2.4845106816560475e-01  -1.8167922009462462e-01  -1.1798024879559359e-01  -5.7733039019781177e-02  -1.5491370531603424e-03  4.9979559824876070e-02  9.6276549914863160e-02  1.3681701834845428e-01  1.7115026983894321e-01  1.9891922622277050e-01  2.1987558453054182e-01  2.3389074119287698e-01  2.4096230947368064e-01  2.4121609977899938e-01  2.3490359986563458e-01  2.2239515235862742e-01  2.0416923508607671e-01  1.8079840547868573e-01  1.5293261088183141e-01  1.2128064042760313e-01  8.6590528393853033e-02  4.9629696396703664e-02  1.1165563336850278e-02  -2.8052726052288833e-02  -6.7310907604427830e-02  -1.0594408952603711e-01  -1.4334878711726218e-01  -1.7899224874356348e-01  -2.1241892182721411e-01  -2.4325399321527172e-01  -2.7120403214259664e-01  -2.9605484659264580e-01  -3.1766676003814098e-01  -3.3596758321300468e-01  -3.5094365071154932e-01  -3.6262933379446682e-01  -3.7109552095016141e-01  -3.7643756895351282e-01  -3.7876327503529533e-01  -3.7818139944674606e-01  -3.7479128840948794e-01  -3.6867407055500434e-01  -3.5988590700864070e-01  -3.4845364404057666e-01  -3.3437320038355267e-01  -3.1761085690353408e-01  -2.9810754193402222e-01  -2.7578616738601541e-01  -2.5056103095121063e-01  -2.2235328007920011e-01  -1.9109034684210549e-01  -1.5678466233095778e-01  -1.1928812490811622e-01  -7.9312751171486132e-02  -3.4678550489603853e-02  6.1078719504211306e-03  7.1591108370723633e-02  6.3290152737408165e-02  3.0762073114836597e-01  -2.9051433720011560e-01  -2.4308985843849454e-01  -6.4204543542813453e-01  -4.7182645158069964e-01  -4.1783405185271749e-01  -3.4535132299614923e-01  -2.7970412828313668e-01  -2.1604144285208832e-01  -1.5564422418979867e-01  -9.8707822738840781e-02  -4.5728069747301044e-02  2.8303617932352570e-03  4.6506132217916475e-02  8.4879014764974073e-02  1.1758878501552054e-01  1.4435261838571520e-01  1.6497822099104181e-01  1.7937319677709643e-01  1.8755063118923437e-01  1.8963082492676303e-01  1.8583934368899005e-01  1.7650150622863597e-01  1.6203373055056131e-01  1.4293211161035857e-01  1.1975885643187881e-01  9.3127110354937412e-02  6.3684880359670973e-02  3.2098624492002320e-02  -9.6284407144965037e-04  -3.4843645940031726e-02  -6.8914810496231410e-02  -1.0258656987529802e-01  -1.3531864964083792e-01  -1.6662833186132631e-01  -1.9609615175725070e-01  -2.2336914528421248e-01  -2.4816168952872825e-01  -2.7025399317267990e-01  -2.8948844065455365e-01  -3.0576398438948654e-01  -3.1902892767627133e-01  -3.2927240112994194e-01  -3.3651497949735892e-01  -3.4079880903184645e-01  -3.4217774641240983e-01  -3.4070789044542288e-01  -3.3643899248719927e-01  -3.2940709422810366e-01  -3.1962878817643331e-01  -3.0709734538812811e-01  -2.9178096187253871e-01  -2.7362319688162634e-01  -2.5254563629150245e-01  -2.2845274386510950e-01  -2.0123782474777960e-01  -1.7079433099292826e-01  -1.3700880363185097e-01  -9.9838985438143249e-02  -5.9036241839535722e-02  -1.5266339499433791e-02  3.4074769372927041e-02  7.9656400368550484e-02  1.5388030230084035e-01  1.4598188395039824e-01  4.2326082574266638e-01  -2.4308985843849454e-01  -1.9566537967687353e-01  -6.7607636729277398e-01  -4.8935807077111154e-01  -4.4190457240363912e-01  -3.7120131486470764e-01  -3.0849476116216268e-01  -2.4765100006033861e-01  -1.9016865577988573e-01  -1.3610098058380840e-01  -8.5865193784931265e-02  -3.9828467012598276e-02  1.6383651293547681e-03  3.8199173483585099e-02  6.9567303434352856e-02  9.5520730788988525e-02  1.1591317168262054e-01  1.3068208319882788e-01  1.3985339060488386e-01  1.4354306418357918e-01  1.4195557204156140e-01  1.3537946714528379e-01  1.2418031518097143e-01  1.0879139795528671e-01  8.9702560724006064e-02  6.7447758388958459e-02  4.2591753876573421e-02  1.5716534382726740e-02  -1.2592115318049888e-02  -4.1757387219498870e-02  -7.1223210315448454e-02  -1.0046463899742387e-01  -1.2899661421327521e-01  -1.5638089248381948e-01  -1.8223100736855832e-01  -2.0621521555039068e-01  -2.2805741098435497e-01  -2.4753610562721215e-01  -2.6448158025434054e-01  -2.7877143211794164e-01  -2.9032472440177226e-01  -2.9909506917006207e-01  -3.0506292166503052e-01  -3.0822748451649212e-01  -3.0859852298977303e-01  -3.0618850911369955e-01  -3.0100538134862626e-01  -2.9304628276708755e-01  -2.8229249861735828e-01  -2.6870584791849439e-01  -2.5222662278871466e-01  -2.3277317227485775e-01  -2.1024301037620738e-01  -1.8451547938194052e-01  -1.5545474438278381e-01  -1.2291766252586965e-01  -8.6741555330998546e-02  -4.6822409767943586e-02  -2.8103650792598574e-03  4.4677323101412224e-02  9.8638041008290919e-02  1.4895060400926352e-01  2.3166984892942433e-01  2.2431679275005798e-01  5.3261516419017885e-01  -1.9566537967687353e-01  -1.5006339703810753e-01  -7.0657032679106913e-01  -5.0416278906633105e-01  -4.6348289485211047e-01  -3.9457332063993039e-01  -3.3470333721877360e-01  -2.7645262145595983e-01  -2.2158605821211666e-01  -1.7004422532589245e-01  -1.2219543493177382e-01  -7.8333593713990485e-02  -3.8759505523402960e-02  -3.7421463220361382e-03  2.6491656051668463e-02  5.1769970111402469e-02  7.1984869323844514e-02  8.7099014487053622e-02  9.7149568294795804e-02  1.0224947318747757e-01  1.0258621543661510e-01  9.8418191969094890e-02  9.0068943987565653e-02  7.7919514404993076e-02  6.2399314737444180e-02  4.3975853164049311e-02  2.3143771588093033e-02  4.1357232617936083e-04  -2.3699532562625195e-02  -4.8686307046212240e-02  -7.4053354720356748e-02  -9.9331891978915260e-02  -1.2408518953806283e-01  -1.4791451063147024e-01  -1.7046342937420075e-01  -1.9142046460427350e-01  -2.1052003709160419e-01  -2.2754179063643076e-01  -2.4230839948595834e-01  -2.5468199983692513e-01  -2.6455946564939625e-01  -2.7186673753694796e-01  -2.7655249782471319e-01  -2.7858144002453433e-01  -2.7792745926177820e-01  -2.7456700950932489e-01  -2.6847293586847187e-01  -2.5960898873285077e-01  -2.4792525290029069e-01  -2.3335460607178005e-01  -2.1581031908932602e-01  -1.9518477171673448e-01  -1.7134921533458225e-01  -1.4415450915954017e-01  -1.1343168831530609e-01  -7.8996999783042726e-02  -4.0635758544931719e-02  1.8193912230182565e-03  4.8814115158468903e-02  9.9781740169941111e-02  1.5806891758532318e-01  2.1284341281013008e-01  3.0348467889715847e-01  2.9675511775682040e-01  6.3346344601373450e-01  -1.5006339703810753e-01  -1.0803636914111804e-01  -7.3360287222428766e-01  -5.1654738610406969e-01  -4.8262678812676224e-01  -4.1546602973359231e-01  -3.5830325415336700e-01  -3.0243625320248307e-01  -2.4992618454676183e-01  -2.0062125360456334e-01  -1.5486255748743366e-01  -1.1288928852423696e-01  -7.4948542224378550e-02  -4.1255977994344432e-02  -1.1990023236415293e-02  1.2718497160282130e-02  3.2793465078630797e-02  4.8218700266295038e-02  5.9041037086681514e-02  6.5371294980524033e-02  6.7383199633445620e-02  6.5310374650865796e-02  5.9441579421618707e-02  5.0114427403828044e-02  3.7707855042553716e-02  2.2633660195991362e-02  5.3274302748808717e-03  -1.3760792152012537e-02  -3.4175794369373992e-02  -5.5466105884357950e-02  -7.7192273142331430e-02  -9.8934246503802933e-02  -1.2029768890526575e-01  -1.4091904748947526e-01  -1.6046928913063871e-01  -1.7865623950486487e-01  -1.9522552297301068e-01  -2.0996013788409193e-01  -2.2267875481792943e-01  -2.3323285986120423e-01  -2.4150290235506197e-01  -2.4739363927557650e-01  -2.5082888309149282e-01  -2.5174588681301674e-01  -2.5008958606887938e-01  -2.4580693541982954e-01  -2.3884153757520710e-01  -2.2912875895984292e-01  -2.1659146698010118e-01  -2.0113649524736410e-01  -1.8265186880837794e-01  -1.6100476940030362e-01  -1.3604011408649905e-01  -1.0757971638443921e-01  -7.5420873022827087e-02  -3.9339132030957506e-02  9.3070021188320685e-04  4.5616809234232038e-02  9.5250615727936708e-02  1.4931860552949100e-01  2.1145888835240606e-01  2.7025183647315676e-01  3.6793688159295235e-01  3.6187276115552569e-01  7.2368435932565778e-01  -1.0803636914111804e-01  -7.1199371098957118e-02  -7.5727592995965576e-01  -5.2691600974874753e-01  -4.9948041943671206e-01  -4.3396342863219628e-01  -3.7933793170576918e-01  -3.2564672004760276e-01  -2.7525898499422041e-01  -2.2794288547387875e-01  -1.8402648819097137e-01  -1.4370744220814874e-01  -1.0719128373283413e-01  -7.4650965359628965e-02  -4.6225453941401443e-02  -2.2011586919664386e-02  -2.0588746314150310e-03  1.3634444315055760e-02  2.5123668607413309e-02  3.2518266596342507e-02  3.5980870101763034e-02  3.5724736195801986e-02  3.2009784202466342e-02  2.5137405309625376e-02  1.5444245607596814e-02  3.2952195838742626e-03  -1.0923989378637625e-02  -2.6814669376