<?xml version="1.0"?>
<VTKFile type="UnstructuredGrid"  version="0.1"  >
<UnstructuredGrid>
<Piece  NumberOfPoints="4225" NumberOfCells="8192">
<Points>
<DataArray  type="Float64"  NumberOfComponents="3"  format="ascii">-1 -1 0  -0.96875 -1 0  -0.9375 -1 0  -0.90625 -1 0  -0.875 -1 0  -0.84375 -1 0  -0.8125 -1 0  -0.78125 -1 0  -0.75 -1 0  -0.71875 -1 0  -0.6875 -1 0  -0.65625 -1 0  -0.625 -1 0  -0.59375 -1 0  -0.5625 -1 0  -0.53125 -1 0  -0.5 -1 0  -0.46875 -1 0  -0.4375 -1 0  -0.40625 -1 0  -0.375 -1 0  -0.34375 -1 0  -0.3125 -1 0  -0.28125 -1 0  -0.25 -1 0  -0.21875 -1 0  -0.1875 -1 0  -0.15625 -1 0  -0.125 -1 0  -0.09375 -1 0  -0.0625 -1 0  -0.03125 -1 0  0 -1 0  0.03125 -1 0  0.0625 -1 0  0.09375 -1 0  0.125 -1 0  0.15625 -1 0  0.1875 -1 0  0.21875 -1 0  0.25 -1 0  0.28125 -1 0  0.3125 -1 0  0.34375 -1 0  0.375 -1 0  0.40625 -1 0  0.4375 -1 0  0.46875 -1 0  0.5 -1 0  0.53125 -1 0  0.5625 -1 0  0.59375 -1 0  0.625 -1 0  0.65625 -1 0  0.6875 -1 0  0.71875 -1 0  0.75 -1 0  0.78125 -1 0  0.8125 -1 0  0.84375 -1 0  0.875 -1 0  0.90625 -1 0  0.9375 -1 0  0.96875 -1 0  1 -1 0  -1 -0.96875 0  -0.96875 -0.96875 0  -0.9375 -0.96875 0  -0.90625 -0.96875 0  -0.875 -0.96875 0  -0.84375 -0.96875 0  -0.8125 -0.96875 0  -0.78125 -0.96875 0  -0.75 -0.96875 0  -0.71875 -0.96875 0  -0.6875 -0.96875 0  -0.65625 -0.96875 0  -0.625 -0.96875 0  -0.59375 -0.96875 0  -0.5625 -0.96875 0  -0.53125 -0.96875 0  -0.5 -0.96875 0  -0.46875 -0.96875 0  -0.4375 -0.96875 0  -0.40625 -0.96875 0  -0.375 -0.96875 0  -0.34375 -0.96875 0  -0.3125 -0.96875 0  -0.28125 -0.96875 0  -0.25 -0.96875 0  -0.21875 -0.96875 0  -0.1875 -0.96875 0  -0.15625 -0.96875 0  -0.125 -0.96875 0  -0.09375 -0.96875 0  -0.0625 -0.96875 0  -0.03125 -0.96875 0  0 -0.96875 0  0.03125 -0.96875 0  0.0625 -0.96875 0  0.09375 -0.96875 0  0.125 -0.96875 0  0.15625 -0.96875 0  0.1875 -0.96875 0  0.21875 -0.96875 0  0.25 -0.96875 0  0.28125 -0.96875 0  0.3125 -0.96875 0  0.34375 -0.96875 0  0.375 -0.96875 0  0.40625 -0.96875 0  0.4375 -0.96875 0  0.46875 -0.96875 0  0.5 -0.96875 0  0.53125 -0.96875 0  0.5625 -0.96875 0  0.59375 -0.96875 0  0.625 -0.96875 0  0.65625 -0.96875 0  0.6875 -0.96875 0  0.71875 -0.96875 0  0.75 -0.96875 0  0.78125 -0.96875 0  0.8125 -0.96875 0  0.84375 -0.96875 0  0.875 -0.96875 0  0.90625 -0.96875 0  0.9375 -0.96875 0  0.96875 -0.96875 0  1 -0.96875 0  -1 -0.9375 0  -0.96875 -0.9375 0  -0.9375 -0.9375 0  -0.90625 -0.9375 0  -0.875 -0.9375 0  -0.84375 -0.9375 0  -0.8125 -0.9375 0  -0.78125 -0.9375 0  -0.75 -0.9375 0  -0.71875 -0.9375 0  -0.6875 -0.9375 0  -0.65625 -0.9375 0  -0.625 -0.9375 0  -0.59375 -0.9375 0  -0.5625 -0.9375 0  -0.53125 -0.9375 0  -0.5 -0.9375 0  -0.46875 -0.9375 0  -0.4375 -0.9375 0  -0.40625 -0.9375 0  -0.375 -0.9375 0  -0.34375 -0.9375 0  -0.3125 -0.9375 0  -0.28125 -0.9375 0  -0.25 -0.9375 0  -0.21875 -0.9375 0  -0.1875 -0.9375 0  -0.15625 -0.9375 0  -0.125 -0.9375 0  -0.09375 -0.9375 0  -0.0625 -0.9375 0  -0.03125 -0.9375 0  0 -0.9375 0  0.03125 -0.9375 0  0.0625 -0.9375 0  0.09375 -0.9375 0  0.125 -0.9375 0  0.15625 -0.9375 0  0.1875 -0.9375 0  0.21875 -0.9375 0  0.25 -0.9375 0  0.28125 -0.9375 0  0.3125 -0.9375 0  0.34375 -0.9375 0  0.375 -0.9375 0  0.40625 -0.9375 0  0.4375 -0.9375 0  0.46875 -0.9375 0  0.5 -0.9375 0  0.53125 -0.9375 0  0.5625 -0.9375 0  0.59375 -0.9375 0  0.625 -0.9375 0  0.65625 -0.9375 0  0.6875 -0.9375 0  0.71875 -0.9375 0  0.75 -0.9375 0  0.78125 -0.9375 0  0.8125 -0.9375 0  0.84375 -0.9375 0  0.875 -0.9375 0  0.90625 -0.9375 0  0.9375 -0.9375 0  0.96875 -0.9375 0  1 -0.9375 0  -1 -0.90625 0  -0.96875 -0.90625 0  -0.9375 -0.90625 0  -0.90625 -0.90625 0  -0.875 -0.90625 0  -0.84375 -0.90625 0  -0.8125 -0.90625 0  -0.78125 -0.90625 0  -0.75 -0.90625 0  -0.71875 -0.90625 0  -0.6875 -0.90625 0  -0.65625 -0.90625 0  -0.625 -0.90625 0  -0.59375 -0.90625 0  -0.5625 -0.90625 0  -0.53125 -0.90625 0  -0.5 -0.90625 0  -0.46875 -0.90625 0  -0.4375 -0.90625 0  -0.40625 -0.90625 0  -0.375 -0.90625 0  -0.34375 -0.90625 0  -0.3125 -0.90625 0  -0.28125 -0.90625 0  -0.25 -0.90625 0  -0.21875 -0.90625 0  -0.1875 -0.90625 0  -0.15625 -0.90625 0  -0.125 -0.90625 0  -0.09375 -0.90625 0  -0.0625 -0.90625 0  -0.03125 -0.90625 0  0 -0.90625 0  0.03125 -0.90625 0  0.0625 -0.90625 0  0.09375 -0.90625 0  0.125 -0.90625 0  0.15625 -0.90625 0  0.1875 -0.90625 0  0.21875 -0.90625 0  0.25 -0.90625 0  0.28125 -0.90625 0  0.3125 -0.90625 0  0.34375 -0.90625 0  0.375 -0.90625 0  0.40625 -0.90625 0  0.4375 -0.90625 0  0.46875 -0.90625 0  0.5 -0.90625 0  0.53125 -0.90625 0  0.5625 -0.90625 0  0.59375 -0.90625 0  0.625 -0.90625 0  0.65625 -0.90625 0  0.6875 -0.90625 0  0.71875 -0.90625 0  0.75 -0.90625 0  0.78125 -0.90625 0  0.8125 -0.90625 0  0.84375 -0.90625 0  0.875 -0.90625 0  0.90625 -0.90625 0  0.9375 -0.90625 0  0.96875 -0.90625 0  1 -0.90625 0  -1 -0.875 0  -0.96875 -0.875 0  -0.9375 -0.875 0  -0.90625 -0.875 0  -0.875 -0.875 0  -0.84375 -0.875 0  -0.8125 -0.875 0  -0.78125 -0.875 0  -0.75 -0.875 0  -0.71875 -0.875 0  -0.6875 -0.875 0  -0.65625 -0.875 0  -0.625 -0.875 0  -0.59375 -0.875 0  -0.5625 -0.875 0  -0.53125 -0.875 0  -0.5 -0.875 0  -0.46875 -0.875 0  -0.4375 -0.875 0  -0.40625 -0.875 0  -0.375 -0.875 0  -0.34375 -0.875 0  -0.3125 -0.875 0  -0.28125 -0.875 0  -0.25 -0.875 0  -0.21875 -0.875 0  -0.1875 -0.875 0  -0.15625 -0.875 0  -0.125 -0.875 0  -0.09375 -0.875 0  -0.0625 -0.875 0  -0.03125 -0.875 0  0 -0.875 0  0.03125 -0.875 0  0.0625 -0.875 0  0.09375 -0.875 0  0.125 -0.875 0  0.15625 -0.875 0  0.1875 -0.875 0  0.21875 -0.875 0  0.25 -0.875 0  0.28125 -0.875 0  0.3125 -0.875 0  0.34375 -0.875 0  0.375 -0.875 0  0.40625 -0.875 0  0.4375 -0.875 0  0.46875 -0.875 0  0.5 -0.875 0  0.53125 -0.875 0  0.5625 -0.875 0  0.59375 -0.875 0  0.625 -0.875 0  0.65625 -0.875 0  0.6875 -0.875 0  0.71875 -0.875 0  0.75 -0.875 0  0.78125 -0.875 0  0.8125 -0.875 0  0.84375 -0.875 0  0.875 -0.875 0  0.90625 -0.875 0  0.9375 -0.875 0  0.96875 -0.875 0  1 -0.875 0  -1 -0.84375 0  -0.96875 -0.84375 0  -0.9375 -0.84375 0  -0.90625 -0.84375 0  -0.875 -0.84375 0  -0.84375 -0.84375 0  -0.8125 -0.84375 0  -0.78125 -0.84375 0  -0.75 -0.84375 0  -0.71875 -0.84375 0  -0.6875 -0.84375 0  -0.65625 -0.84375 0  -0.625 -0.84375 0  -0.59375 -0.84375 0  -0.5625 -0.84375 0  -0.53125 -0.84375 0  -0.5 -0.84375 0  -0.46875 -0.84375 0  -0.4375 -0.84375 0  -0.40625 -0.84375 0  -0.375 -0.84375 0  -0.34375 -0.84375 0  -0.3125 -0.84375 0  -0.28125 -0.84375 0  -0.25 -0.84375 0  -0.21875 -0.84375 0  -0.1875 -0.84375 0  -0.15625 -0.84375 0  -0.125 -0.84375 0  -0.09375 -0.84375 0  -0.0625 -0.84375 0  -0.03125 -0.84375 0  0 -0.84375 0  0.03125 -0.84375 0  0.0625 -0.84375 0  0.09375 -0.84375 0  0.125 -0.84375 0  0.15625 -0.84375 0  0.1875 -0.84375 0  0.21875 -0.84375 0  0.25 -0.84375 0  0.28125 -0.84375 0  0.3125 -0.84375 0  0.34375 -0.84375 0  0.375 -0.84375 0  0.40625 -0.84375 0  0.4375 -0.84375 0  0.46875 -0.84375 0  0.5 -0.84375 0  0.53125 -0.84375 0  0.5625 -0.84375 0  0.59375 -0.84375 0  0.625 -0.84375 0  0.65625 -0.84375 0  0.6875 -0.84375 0  0.71875 -0.84375 0  0.75 -0.84375 0  0.78125 -0.84375 0  0.8125 -0.84375 0  0.84375 -0.84375 0  0.875 -0.84375 0  0.90625 -0.84375 0  0.9375 -0.84375 0  0.96875 -0.84375 0  1 -0.84375 0  -1 -0.8125 0  -0.96875 -0.8125 0  -0.9375 -0.8125 0  -0.90625 -0.8125 0  -0.875 -0.8125 0  -0.84375 -0.8125 0  -0.8125 -0.8125 0  -0.78125 -0.8125 0  -0.75 -0.8125 0  -0.71875 -0.8125 0  -0.6875 -0.8125 0  -0.65625 -0.8125 0  -0.625 -0.8125 0  -0.59375 -0.8125 0  -0.5625 -0.8125 0  -0.53125 -0.8125 0  -0.5 -0.8125 0  -0.46875 -0.8125 0  -0.4375 -0.8125 0  -0.40625 -0.8125 0  -0.375 -0.8125 0  -0.34375 -0.8125 0  -0.3125 -0.8125 0  -0.28125 -0.8125 0  -0.25 -0.8125 0  -0.21875 -0.8125 0  -0.1875 -0.8125 0  -0.15625 -0.8125 0  -0.125 -0.8125 0  -0.09375 -0.8125 0  -0.0625 -0.8125 0  -0.03125 -0.8125 0  0 -0.8125 0  0.03125 -0.8125 0  0.0625 -0.8125 0  0.09375 -0.8125 0  0.125 -0.8125 0  0.15625 -0.8125 0  0.1875 -0.8125 0  0.21875 -0.8125 0  0.25 -0.8125 0  0.28125 -0.8125 0  0.3125 -0.8125 0  0.34375 -0.8125 0  0.375 -0.8125 0  0.40625 -0.8125 0  0.4375 -0.8125 0  0.46875 -0.8125 0  0.5 -0.8125 0  0.53125 -0.8125 0  0.5625 -0.8125 0  0.59375 -0.8125 0  0.625 -0.8125 0  0.65625 -0.8125 0  0.6875 -0.8125 0  0.71875 -0.8125 0  0.75 -0.8125 0  0.78125 -0.8125 0  0.8125 -0.8125 0  0.84375 -0.8125 0  0.875 -0.8125 0  0.90625 -0.8125 0  0.9375 -0.8125 0  0.96875 -0.8125 0  1 -0.8125 0  -1 -0.78125 0  -0.96875 -0.78125 0  -0.9375 -0.78125 0  -0.90625 -0.78125 0  -0.875 -0.78125 0  -0.84375 -0.78125 0  -0.8125 -0.78125 0  -0.78125 -0.78125 0  -0.75 -0.78125 0  -0.71875 -0.78125 0  -0.6875 -0.78125 0  -0.65625 -0.78125 0  -0.625 -0.78125 0  -0.59375 -0.78125 0  -0.5625 -0.78125 0  -0.53125 -0.78125 0  -0.5 -0.78125 0  -0.46875 -0.78125 0  -0.4375 -0.78125 0  -0.40625 -0.78125 0  -0.375 -0.78125 0  -0.34375 -0.78125 0  -0.3125 -0.78125 0  -0.28125 -0.78125 0  -0.25 -0.78125 0  -0.21875 -0.78125 0  -0.1875 -0.78125 0  -0.15625 -0.78125 0  -0.125 -0.78125 0  -0.09375 -0.78125 0  -0.0625 -0.78125 0  -0.03125 -0.78125 0  0 -0.78125 0  0.03125 -0.78125 0  0.0625 -0.78125 0  0.09375 -0.78125 0  0.125 -0.78125 0  0.15625 -0.78125 0  0.1875 -0.78125 0  0.21875 -0.78125 0  0.25 -0.78125 0  0.28125 -0.78125 0  0.3125 -0.78125 0  0.34375 -0.78125 0  0.375 -0.78125 0  0.40625 -0.78125 0  0.4375 -0.78125 0  0.46875 -0.78125 0  0.5 -0.78125 0  0.53125 -0.78125 0  0.5625 -0.78125 0  0.59375 -0.78125 0  0.625 -0.78125 0  0.65625 -0.78125 0  0.6875 -0.78125 0  0.71875 -0.78125 0  0.75 -0.78125 0  0.78125 -0.78125 0  0.8125 -0.78125 0  0.84375 -0.78125 0  0.875 -0.78125 0  0.90625 -0.78125 0  0.9375 -0.78125 0  0.96875 -0.78125 0  1 -0.78125 0  -1 -0.75 0  -0.96875 -0.75 0  -0.9375 -0.75 0  -0.90625 -0.75 0  -0.875 -0.75 0  -0.84375 -0.75 0  -0.8125 -0.75 0  -0.78125 -0.75 0  -0.75 -0.75 0  -0.71875 -0.75 0  -0.6875 -0.75 0  -0.65625 -0.75 0  -0.625 -0.75 0  -0.59375 -0.75 0  -0.5625 -0.75 0  -0.53125 -0.75 0  -0.5 -0.75 0  -0.46875 -0.75 0  -0.4375 -0.75 0  -0.40625 -0.75
[...]
<PointData  Scalars="f_15"> 
<DataArray  type="Float64"  Name="f_15"  format="ascii">-4.7705353271807399e-01  -4.7247030778616089e-01  -4.5889676375425287e-01  -4.3685452430736521e-01  -4.0719066034601120e-01  -3.7104513752653917e-01  -3.2980700802025914e-01  -2.8506103001748734e-01  -2.3852676635903694e-01  -1.9199250270058657e-01  -1.4724652469781477e-01  -1.0600839519153460e-01  -6.9862872372062637e-02  -4.0199008410708656e-02  -1.8156768963820954e-02  -4.5832249319130644e-03  0.0000000000000000e+00  -4.5832249319130644e-03  -1.8156768963820978e-02  -4.0199008410708691e-02  -6.9862872372062679e-02  -1.0600839519153465e-01  -1.4724652469781488e-01  -1.9199250270058668e-01  -2.3852676635903700e-01  -2.8506103001748734e-01  -3.2980700802025908e-01  -3.7104513752653928e-01  -4.0719066034601120e-01  -4.3685452430736521e-01  -4.5889676375425292e-01  -4.7247030778616089e-01  -4.7705353271807399e-01  -4.7247030778616089e-01  -4.5889676375425292e-01  -4.3685452430736521e-01  -4.0719066034601120e-01  -3.7104513752653928e-01  -3.2980700802025908e-01  -2.8506103001748734e-01  -2.3852676635903700e-01  -1.9199250270058668e-01  -1.4724652469781488e-01  -1.0600839519153465e-01  -6.9862872372062679e-02  -4.0199008410708691e-02  -1.8156768963820978e-02  -4.5832249319130644e-03  0.0000000000000000e+00  -4.5832249319130644e-03  -1.8156768963820954e-02  -4.0199008410708656e-02  -6.9862872372062637e-02  -1.0600839519153460e-01  -1.4724652469781477e-01  -1.9199250270058657e-01  -2.3852676635903694e-01  -2.8506103001748734e-01  -3.2980700802025914e-01  -3.7104513752653917e-01  -4.0719066034601120e-01  -4.3685452430736521e-01  -4.5889676375425287e-01  -4.7247030778616089e-01  -4.7705353271807399e-01  -4.7247030778616089e-01  -3.5027230472793036e-01  -2.8750058569643688e-01  -2.0324682494004515e-01  -1.0970650442360504e-01  -1.0603974011606093e-02  9.1063914199104479e-02  1.9279873687875618e-01  2.9231570446693150e-01  3.8743704095081188e-01  4.7606708451989088e-01  5.5621551097128641e-01  6.2604733121576261e-01  6.8394470689601194e-01  7.2856984232168853e-01  7.5892108514297518e-01  7.7437687747166650e-01  7.7472381208156471e-01  7.6016666441644343e-01  7.3131918534653884e-01  6.8917568833813414e-01  6.3506435553366347e-01  5.7058468896386239e-01  4.9753276667534357e-01  4.1781954297974055e-01  3.3338823324313677e-01  2.4613718474067181e-01  1.5785364992507814e-01  7.0162159029718951e-02  -1.5511253961789675e-02  -9.7959911243503242e-02  -1.7620486864970678e-01  -2.4949364912963851e-01  -3.1729155377768509e-01  -3.7926683253733140e-01  -4.3527003140673348e-01  -4.8530769854132666e-01  -5.2951090659366729e-01  -5.6810014611231374e-01  -6.0134894741118994e-01  -6.2954948508528541e-01  -6.5298328111144355e-01  -6.7189981365551932e-01  -6.8650451389553346e-01  -6.9695649362326773e-01  -7.0337471034268861e-01  -7.0585036719292360e-01  -7.0446236717155941e-01  -6.9929270122463005e-01  -6.9043875482631667e-01  -6.7802068764920509e-01  -6.6218296217310757e-01  -6.4309133190496792e-01  -6.2092621888918176e-01  -5.9588177030239775e-01  -5.6815748946060274e-01  -5.3801548492377749e-01  -5.0568917639529043e-01  -4.7192262359278403e-01  -4.3671354911021237e-01  -4.0430477503308976e-01  -3.7013898111290944e-01  -3.6387456929264328e-01  -3.2823193960122610e-01  -4.7247030778616089e-01  -4.5889676375425287e-01  -3.4972987748349788e-01  -3.1979900562559155e-01  -2.6030218044275505e-01  -1.9626961065796539e-01  -1.2787721827510434e-01  -5.7373228375864983e-02  1.3370795215547796e-02  8.2647169576207033e-02  1.4887111247022713e-01  2.1055866181583738e-01  2.6633166284523530e-01  3.1494136193538680e-01  3.5530283787503814e-01  3.8653303891168800e-01  4.0798633543885515e-01  4.1928236909909017e-01  4.2032254586900558e-01  4.1129263968230551e-01  3.9265071433550386e-01  3.6510078183942513e-01  3.2955434929091859e-01  2.8708305487629737e-01  2.3886680559367421e-01  1.8614202507488897e-01  1.3015451700631830e-01  7.2120173443468272e-02  1.3195233218922764e-02  -4.5544162386849940e-02  -1.0311483929063923e-01  -1.5863450463732470e-01  -2.1132730932975921e-01  -2.6052892566873581e-01  -3.0569198788673096e-01  -3.4639163411594132e-01  -3.8233029326543583e-01  -4.1334048128456780e-01  -4.3938464728840976e-01  -4.6055122895318751e-01  -4.7704656855078564e-01  -4.8918232243884230e-01  -4.9735836388590715e-01  -5.0204108112911328e-01  -5.0373751275231893e-01  -5.0296601276295982e-01  -5.0022506159190649e-01  -4.9596226986770375e-01  -4.9054642793336389e-01  -4.8424540376510111e-01  -4.7721277885828678e-01  -4.6948525093576221e-01  -4.6099204259818449e-01  -4.5157673093013156e-01  -4.4102927437303679e-01  -4.2913259536332832e-01  -4.1570159165362863e-01  -4.0069093050108723e-01  -3.8411140189709841e-01  -3.6667396618859860e-01  -3.4816285209056858e-01  -3.3347481067124174e-01  -3.1472261919787980e-01  -3.2811520590938731e-01  -2.7791386152041025e-01  -4.5889676375425287e-01  -4.3685452430736521e-01  -3.6493069972052788e-01  -3.2127737748783847e-01  -2.5817983019566559e-01  -1.9253906323232814e-01  -1.2269819510198780e-01  -5.0996324978864443e-02  2.0937239100283424e-02  9.1515749068467503e-02  1.5921920068268358e-01  2.2258584534413658e-01  2.8022736924589536e-01  3.3086022604557774e-01  3.7334753270654325e-01  4.0674498698809475e-01  4.3034429508501532e-01  4.4370837599784402e-01  4.4669370749247345e-01  4.3945684249408329e-01  4.2244384081427533e-01  3.9636329016259209e-01  3.6214528223140147e-01  3.2089022907767062e-01  2.7381231606033429e-01  2.2218272863273550e-01  1.6727729642522285e-01  1.1033212552263190e-01  5.2509200059009199e-02  -5.1277207404734695e-03  -6.1627998045972764e-02  -1.1616178923091576e-01  -1.6802275785594328e-01  -2.1662780617810951e-01  -2.6151516661796176e-01  -3.0234147236643494e-01  -3.3887778765672216e-01  -3.7100421528099958e-01  -3.9870256095150763e-01  -4.2204668207284946e-01  -4.4119035036468557e-01  -4.5635280134892103e-01  -4.6780236805650194e-01  -4.7583890535698625e-01  -4.8077583479671931e-01  -4.8292280896424672e-01  -4.8256997482682362e-01  -4.7997483535893570e-01  -4.7535250668359869e-01  -4.6887006258598019e-01  -4.6064535407159307e-01  -4.5075063560830197e-01  -4.3922096907011632e-01  -4.2606803005171295e-01  -4.1129759639798624e-01  -3.9493838929139918e-01  -3.7705711873045838e-01  -3.5785623207071410e-01  -3.3752808901440146e-01  -3.1700983752769418e-01  -2.9582755499857760e-01  -2.7964264004737638e-01  -2.5660747580183085e-01  -2.7227622707884569e-01  -1.9060856716935390e-01  -4.3685452430736521e-01  -4.0719066034601120e-01  -3.9258901148710101e-01  -3.3493852506772825e-01  -2.7566657863240435e-01  -2.1394674634169505e-01  -1.4986683843708568e-01  -8.5080457686343883e-02  -2.0761574850303374e-02  4.1822419571275617e-02  1.0145464872947486e-01  1.5697320934532077e-01  2.0729318988967718e-01  2.5143253023645290e-01  2.8854116273069041e-01  3.1793035702381806e-01  3.3909886401452438e-01  3.5175276176499626e-01  3.5581650217043426e-01  3.5143370098135895e-01  3.3895723557374524e-01  3.1892945185408467e-01  2.9205416067113849e-01  2.5916293827975539e-01  2.2117851455840107e-01  1.7907809182537204e-01  1.3385896237889816e-01  8.6508203728072455e-02  3.7977385354174359e-02  -1.0837470682081369e-02  -5.9111079116254926e-02  -1.0609994169062210e-01  -1.5115009164249898e-01  -1.9370223826075922e-01  -2.3329477949141000e-01  -2.6956490020640361e-01  -3.0224772917314829e-01  -3.3117346310781071e-01  -3.5626230736947084e-01  -3.7751721516192188e-01  -3.9501447032168646e-01  -4.0889235297987331e-01  -4.1933818586968635e-01  -4.2657423414684492e-01  -4.3084296240232223e-01  -4.3239234080599548e-01  -4.3146190868140660e-01  -4.2827047219676384e-01  -4.2300629100371823e-01  -4.1582066315143396e-01  -4.0682564416612504e-01  -3.9609655564585039e-01  -3.8367945931816422e-01  -3.6960431494164897e-01  -3.5390146810923628e-01  -3.3662991621073718e-01  -3.1788599110341181e-01  -2.9790706870472305e-01  -2.7687020193572437e-01  -2.5577694797418854e-01  -2.3372908913433757e-01  -2.1717278911916044e-01  -1.9016447073476359e-01  -2.0882530491832843e-01  -9.7831706825110262e-02  -4.0719066034601120e-01  -3.7104513752653917e-01  -4.2517177898340902e-01  -3.5163069796219354e-01  -2.9401702295505244e-01  -2.3302416113956376e-01  -1.7143293718568944e-01  -1.0983736363842317e-01  -4.9156925879844687e-02  9.6090307569586374e-03  6.5467644228241792e-02  1.1744768426506991e-01  1.6462999974928294e-01  2.0617492464052295e-01  2.4135034735321473e-01  2.6955876226625353e-01  2.9036126148861524e-01  3.0349607146814134e-01  3.0888969149218942e-01  3.0665919242122941e-01  2.9710527510756229e-01  2.8069645971706131e-01  2.5804583437079737e-01  2.2988231310379609e-01  1.9701889464629557e-01  1.6032031930272969e-01  1.2067238019593468e-01  7.8954516946904585e-02  3.6016763229069923e-02  -7.3386303822703166e-03  -5.0371056158435790e-02  -9.2411464744244498e-02  -1.3286903735949959e-01  -1.7123528630227289e-01  -2.0708610671517719e-01  -2.4008205997166202e-01  -2.6996703760574803e-01  -2.9656525392179772e-01  -3.1977656321366199e-01  -3.3957003244207895e-01  -3.5597589545188696e-01  -3.6907600122352485e-01  -3.7899311478806619e-01  -3.8587940762207590e-01  -3.8990471912212088e-01  -3.9124509198693791e-01  -3.9007229901081841e-01  -3.8654494156913188e-01  -3.8080183312071442e-01  -3.7295814848971393e-01  -3.6310484801402093e-01  -3.5131163010907995e-01  -3.3763346295183994e-01  -3.2212125578907158e-01  -3.0483405511399897e-01  -2.8586253109045306e-01  -2.6532671532333058e-01  -2.4348339869284025e-01  -2.2046360907256768e-01  -1.9730918527060198e-01  -1.7263704925573001e-01  -1.5381659124999830e-01  -1.2065939328492570e-01  -1.4100080695714068e-01  5.7956314849546902e-04  -3.7104513752653917e-01  -3.2980700802025914e-01  -4.5900040836264766e-01  -3.6961305280763884e-01  -3.1442247320658079e-01  -2.5444260148440156e-01  -1.9545505359177467e-01  -1.3711406269261853e-01  -8.0196730811632810e-02  -2.5443360616423698e-02  2.6358845978062585e-02  7.4428483213003160e-02  1.1802224893711057e-01  1.5646254407970545e-01  1.8916263108217590e-01  2.1564890374611617e-01  2.3557927896309491e-01  2.4875664296490027e-01  2.5513624836245197e-01  2.5482652443469783e-01  2.4808312015220124e-01  2.3529674261032832e-01  2.1697568875800810e-01  1.9372451403965463e-01  1.6622034101574307e-01  1.3518847216724852e-01  1.0137868406691038e-01  6.5543405638184005e-02  2.8418523266704326e-02  -9.2927414585435523e-03  -4.6932823562743663e-02  -8.3899818753089300e-02  -1.1965479482206327e-01  -1.5372674575855066e-01  -1.8571546397907773e-01  -2.1529257084518807e-01  -2.4220080903961461e-01  -2.6625172197076624e-01  -2.8732173242142883e-01  -3.0534675841191805e-01  -3.2031543328516987e-01  -3.3226119976111274e-01  -3.4125347535802197e-01  -3.4738831338009207e-01  -3.5077889084229047e-01  -3.5154637344594408e-01  -3.4981156537754954e-01  -3.4568793915280804e-01  -3.3927643227144688e-01  -3.3066253266454460e-01  -3.1991587569571761e-01  -3.0709269683196028e-01  -2.9224093899571701e-01  -2.7540878573346850e-01  -2.5665341614776649e-01  -2.3606126942668126e-01  -2.1373661092882057e-01  -1.8991605574207596e-01  -1.6464542516598016e-01  -1.3898883910092183e-01  -1.1104316881386785e-01  -8.9236102148632548e-02  -4.8982466256874503e-02  -7.0625455220283018e-02  1.0143159894559425e-01  -3.2980700802025914e-01  -2.8506103001748734e-01  -4.9235089645997765e-01  -3.8735236106943044e-01  -3.3514590358910867e-01  -2.7595496734169334e-01  -2.1908270249292586e-01  -1.6331677574652687e-01  -1.0935937741664696e-01  -5.7739005516807468e-02  -9.0789863501662422e-03  3.5995312587112901e-02  7.6881219387456401e-02  1.1302653673145742e-01  1.4395257986084498e-01  1.6927377695651566e-01  1.8871346879927578e-01  2.0211529337685791e-01  2.0944958175178668e-01  2.1081437522067889e-01  2.0643103622375908e-01  1.9663480294538560e-01  1.8186102445900035e-01  1.6262810560226648e-01  1.3951837098002826e-01  1.1315809788492054e-01  8.4197871376328157e-02  5.3294216698842288e-02  2.1093190524393953e-02  -1.1783661312262227e-02  -4.4750837025598560e-02  -7.7267947802629439e-02  -1.0884649559614304e-01  -1.3905457469382221e-01  -1.6751971263820423e-01  -1.9393002451621980e-01  -2.1803381303872019e-01  -2.3963771152066804e-01  -2.5860346170898307e-01  -2.7484342434092240e-01  -2.8831496785943939e-01  -2.9901391457604948e-01  -3.0696729625368169e-01  -3.1222570793502230e-01  -3.1485561169764659e-01  -3.1493196027438147e-01  -3.1253154979210901e-01  -3.0772747329590255e-01  -3.0058505732739277e-01  -2.9115955970202612e-01  -2.7949586226727630e-01  -2.6563029302657876e-01  -2.4959440778220396e-01  -2.3142141413198594e-01  -2.1115181419600298e-01  -1.8885080271420798e-01  -1.6458865988261126e-01  -1.3856409508781453e-01  -1.1072187518436001e-01  -8.2146864180008258e-02  -5.0403565636923914e-02  -2.5078393712536881e-02  2.2915630099342214e-02  2.3828052703299480e-04  2.0227669401774354e-01  -2.8506103001748734e-01  -2.3852676635903694e-01  -5.2438368008805369e-01  -4.0399281931289599e-01  -3.5539905016890427e-01  -2.9704321437921111e-01  -2.4216165471497600e-01  -1.8867681567662539e-01  -1.3729810658507105e-01  -8.8389705461303758e-02  -4.2446323376771004e-02  3.5576208378693999e-05  3.8571775470884889e-02  7.2717945921998497e-02  1.0208988736306812e-01  1.2638057704829719e-01  1.4537343934793984e-01  1.5895164683496812e-01  1.6710323364367474e-01  1.6992183149285536e-01  1.6760317298075220e-01  1.6043762736549341e-01  1.4879941206672667e-01  1.3313317971972805e-01  1.1393892575606857e-01  9.1756062678177500e-02  6.7147568622784287e-02  4.0684885500503511e-02  1.2934164320874606e-02  -1.5555810357863742e-02  -4.4263792315677751e-02  -7.2704308622636091e-02  -1.0043399704700942e-01  -1.2705615353191715e-01  -1.5222362412261251e-01  -1.7564015161670413e-01  -1.9706031470049812e-01  -2.1628813431078761e-01  -2.3317448431239657e-01  -2.4761338882974177e-01  -2.5953738784648811e-01  -2.6891210603937665e-01  -2.7573028543100153e-01  -2.8000548640086831e-01  -2.8176579228924603e-01  -2.8104776750505911e-01  -2.7789102956667944e-01  -2.7233368911701222e-01  -2.6440896334926511e-01  -2.5414313917258136e-01  -2.4155505640612246e-01  -2.2665717609255623e-01  -2.0945803899162418e-01  -1.8996681957006950e-01  -1.6819631617152309e-01  -1.4417816324650415e-01  -1.1793638947326224e-01  -8.9620526723084584e-02  -5.9067341471310326e-02  -2.7381897385874796e-02  8.4000414907424367e-03  3.7486489261298959e-02  9.3475743895946359e-02  6.9912628337708185e-02  3.0088724127593575e-01  -2.3852676635903694e-01  -1.9199250270058657e-01  -5.5465504022343204e-01  -4.1910593544079489e-01  -3.7466136505941866e-01  -3.1717733061376302e-01  -2.6417306916953215e-01  -2.1269582015480001e-01  -1.6353387046116835e-01  -1.1692276542399141e-01  -7.3261334425879468e-02  -3.2943546947213936e-02  3.6424492335978627e-03  3.6140790705844444e-02  6.4244929301398718e-02  8.7712345254595217e-02  1.0637569210743775e-01  1.2015058032759605e-01  1.2903981073364365e-01  1.3313409521396186e-01  1.3260931889920047e-01  1.2772068567599801e-01  1.1879413611124109e-01  1.0621567617407636e-01  9.0419227528025115e-02  7.1873746935523009e-02  5.1070226408857673e-02  2.8509193141158611e-02  4.6891281310587445e-03  -1.9903832895563172e-02  -4.4804743876921821e-02  -6.9577130409680985e-02  -9.3818712129582121e-02  -1.1716560957452743e-01  -1.3929510838728815e-01  -1.5992708191009219e-01  -1.7882414587745257e-01  -1.9579066237932621e-01  -2.1067066824678551e-01  -2.2334487061739133e-01  -2.3372681091887454e-01  -2.4175839284732789e-01  -2.4740492241567263e-01  -2.5064991509250750e-01  -2.5148985263042301e-01  -2.4992918339521608e-01  -2.4597575999760166e-01  -2.3963698356063043e-01  -2.3091680793344169e-01  -2.1981379280645968e-01  -2.0632024635132293e-01  -1.9042256318627357e-01  -1.7210245434439997e-01  -1.5133991023221013e-01  -1.2811399425489345e-01  -1.0241634075996149e-01  -7.4219210776230143e-02  -4.3617887036501123e-02  -1.0342166825867393e-02  2.4485500879953669e-02  6.4335393127204668e-02  9.7226309664697169e-02  1.6113773364116368e-01  1.3680423489493113e-01  3.9510067799337517e-01  -1.9199250270058657e-01  -1.4724652469781477e-01  -5.8289184776103775e-01  -4.3254103168492575e-01  -3.9263142809344354e-01  -3.3603730974730650e-01  -2.8483172009096452e-01  -2.3515853871304010e-01  -1.8793933944758873e-01  -1.4330873615943254e-01  -1.0159766250190617e-01  -6.3119715739379120e-02  -2.8185743995864702e-02  2.9211315593637094e-03  2.9959101645511053e-02  5.2740038300606445e-02  7.1138680338508328e-02  8.5098995014955645e-02  9.4637633709405936e-02  9.9844500095771241e-02  1.0088058270837057e-01  9.7973261300908457e-02  9.1409470969045142e-02  8.1527141285435686e-02  6.8705446239968118e-02  5.3354360714665559e-02  3.5904059329212312e-02  1.6794582006003162e-02  -3.5338345392569902e-03  -2.4649501527122777e-02  -4.6136888500115762e-02  -6.7603004272905956e-02  -8.8682498490680328e-02  -1.0904149360497387e-01  -1.2838018699733228e-01  -1.4643427798369821e-01  -1.6297529854036599e-01  -1.7780991753157144e-01  -1.9077832212714460e-01  -2.0175176622495994e-01  -2.1062942427596665e-01  -2.1733466873053717e-01  -2.2181095480505528e-01  -2.2401746087468818e-01  -2.2392470308409421e-01  -2.2151028300619488e-01  -2.1675498690862777e-01  -2.0963937742260247e-01  -2.0014104513483011e-01  -1.8823259549633659e-01  -1.7388043887199839e-01  -1.5704440216697915e-01  -1.3767792764489983e-01  -1.1572965718187497e-01  -9.1142511990622968e-02  -6.3865744708952371e-02  -3.3818903523112807e-02  -1.0417106227904034e-03  3.4836117132943628e-02  7.2682268218271145e-02  1.1642826789568943e-01  1.5298929038823572e-01  2.2442406708234305e-01  1.9943021670398006e-01  4.8283723684491170e-01  -1.4724652469781477e-01  -1.0600839519153460e-01  -6.0888361016199422e-01  -4.4433106737671058e-01  -4.0914970131635664e-01  -3.5342491859854008e-01  -3.0393351687826814e-01  -2.5588593527495113e-01  -2.1037805691278760e-01  -1.6746316704167324e-01  -1.2742593454378154e-01  -9.0517299363877535e-02  -5.6986370340460939e-02  -2.7056747392852701e-02  -9.1653725761854296e-04  2.1291740185377023e-02  3.9478472468650716e-02  5.3612052822893073e-02  6.3721611929143523e-02  6.9897447706362678e-02  7.2289256841569088e-02  7.1102364035985868e-02  6.6592222193929004e-02  5.9057528761407685e-02  4.8832338830481395e-02  3.6277586346658564e-02  2.1772397244205974e-02  5.7055625971825525e-03  -1.1532538216517568e-02  -2.9557310972341624e-02  -4.7996454956168562e-02  -6.6495486368638140e-02  -8.4722225568425805e-02  -1.0237022560293943e-01  -1.1916116154109274e-01  -1.3484621260388258e-01  -1.4920649390615354e-01  -1.6205259889670398e-01  -1.7322333366281159e-01  -1.8258373156538438e-01  -1.9002245283504113e-01  -1.9544869013416266e-01  -1.9878870925245759e-01  -1.9998217505834751e-01  -1.9897840468185224e-01  -1.9573270796197731e-01  -1.9020294943060151e-01  -1.8234646602498789e-01  -1.7211743272776645e-01  -1.5946475129671059e-01  -1.4433047472907834e-01  -1.2664880438125226e-01  -1.0634540240781791e-01  -8.3337864594198049e-02  -5.7533470630970529e-02  -2.8839966336046071e-02  2.8731637479663427e-03  3.7620189386184291e-02  7.5859525872636113e-02  1.1646132020159142e-01  1.6374939956782725e-01  2.0369094755529346e-01  2.8193324981830375e-01  2.5640268881540407e-01  5.6211336093639241e-01  -1.0600839519153460e-01  -6.9862872372062637e-02  -6.3242894184298737e-01  -4.5462301735820992e-01  -4.2414361414768897e-01  -3.6922773162752387e-01  -3.2134659962001233e-01  -2.7476071266574292e-01  -2.3076658247996568e-01  -1.8934831205650923e-01  -1.5075991571524411e-01  -1.1520303475955664e-01  -8.2877192143256215e-02  -5.3956962574798352e-02  -2.8585593952172514e-02  -6.8670474008304160e-03  1.1139578124728626e-02  2.5423978886038642e-02  3.6026703165064462e-02  4.3039408142742680e-02  4.6603370504612239e-02  4.6906420874604227e-02  4.4178492794747219e-02  3.8686061743340910e-02  3.0725757366891471e-02  2.0617466378846771e-02  8.6972262953998805e-03  -4.689808668125