<?xml version="1.0"?>
<VTKFile type="UnstructuredGrid"  version="0.1"  >
<UnstructuredGrid>
<Piece  NumberOfPoints="4225" NumberOfCells="8192">
<Points>
<DataArray  type="Float64"  NumberOfComponents="3"  format="ascii">-1 -1 0  -0.96875 -1 0  -0.9375 -1 0  -0.90625 -1 0  -0.875 -1 0  -0.84375 -1 0  -0.8125 -1 0  -0.78125 -1 0  -0.75 -1 0  -0.71875 -1 0  -0.6875 -1 0  -0.65625 -1 0  -0.625 -1 0  -0.59375 -1 0  -0.5625 -1 0  -0.53125 -1 0  -0.5 -1 0  -0.46875 -1 0  -0.4375 -1 0  -0.40625 -1 0  -0.375 -1 0  -0.34375 -1 0  -0.3125 -1 0  -0.28125 -1 0  -0.25 -1 0  -0.21875 -1 0  -0.1875 -1 0  -0.15625 -1 0  -0.125 -1 0  -0.09375 -1 0  -0.0625 -1 0  -0.03125 -1 0  0 -1 0  0.03125 -1 0  0.0625 -1 0  0.09375 -1 0  0.125 -1 0  0.15625 -1 0  0.1875 -1 0  0.21875 -1 0  0.25 -1 0  0.28125 -1 0  0.3125 -1 0  0.34375 -1 0  0.375 -1 0  0.40625 -1 0  0.4375 -1 0  0.46875 -1 0  0.5 -1 0  0.53125 -1 0  0.5625 -1 0  0.59375 -1 0  0.625 -1 0  0.65625 -1 0  0.6875 -1 0  0.71875 -1 0  0.75 -1 0  0.78125 -1 0  0.8125 -1 0  0.84375 -1 0  0.875 -1 0  0.90625 -1 0  0.9375 -1 0  0.96875 -1 0  1 -1 0  -1 -0.96875 0  -0.96875 -0.96875 0  -0.9375 -0.96875 0  -0.90625 -0.96875 0  -0.875 -0.96875 0  -0.84375 -0.96875 0  -0.8125 -0.96875 0  -0.78125 -0.96875 0  -0.75 -0.96875 0  -0.71875 -0.96875 0  -0.6875 -0.96875 0  -0.65625 -0.96875 0  -0.625 -0.96875 0  -0.59375 -0.96875 0  -0.5625 -0.96875 0  -0.53125 -0.96875 0  -0.5 -0.96875 0  -0.46875 -0.96875 0  -0.4375 -0.96875 0  -0.40625 -0.96875 0  -0.375 -0.96875 0  -0.34375 -0.96875 0  -0.3125 -0.96875 0  -0.28125 -0.96875 0  -0.25 -0.96875 0  -0.21875 -0.96875 0  -0.1875 -0.96875 0  -0.15625 -0.96875 0  -0.125 -0.96875 0  -0.09375 -0.96875 0  -0.0625 -0.96875 0  -0.03125 -0.96875 0  0 -0.96875 0  0.03125 -0.96875 0  0.0625 -0.96875 0  0.09375 -0.96875 0  0.125 -0.96875 0  0.15625 -0.96875 0  0.1875 -0.96875 0  0.21875 -0.96875 0  0.25 -0.96875 0  0.28125 -0.96875 0  0.3125 -0.96875 0  0.34375 -0.96875 0  0.375 -0.96875 0  0.40625 -0.96875 0  0.4375 -0.96875 0  0.46875 -0.96875 0  0.5 -0.96875 0  0.53125 -0.96875 0  0.5625 -0.96875 0  0.59375 -0.96875 0  0.625 -0.96875 0  0.65625 -0.96875 0  0.6875 -0.96875 0  0.71875 -0.96875 0  0.75 -0.96875 0  0.78125 -0.96875 0  0.8125 -0.96875 0  0.84375 -0.96875 0  0.875 -0.96875 0  0.90625 -0.96875 0  0.9375 -0.96875 0  0.96875 -0.96875 0  1 -0.96875 0  -1 -0.9375 0  -0.96875 -0.9375 0  -0.9375 -0.9375 0  -0.90625 -0.9375 0  -0.875 -0.9375 0  -0.84375 -0.9375 0  -0.8125 -0.9375 0  -0.78125 -0.9375 0  -0.75 -0.9375 0  -0.71875 -0.9375 0  -0.6875 -0.9375 0  -0.65625 -0.9375 0  -0.625 -0.9375 0  -0.59375 -0.9375 0  -0.5625 -0.9375 0  -0.53125 -0.9375 0  -0.5 -0.9375 0  -0.46875 -0.9375 0  -0.4375 -0.9375 0  -0.40625 -0.9375 0  -0.375 -0.9375 0  -0.34375 -0.9375 0  -0.3125 -0.9375 0  -0.28125 -0.9375 0  -0.25 -0.9375 0  -0.21875 -0.9375 0  -0.1875 -0.9375 0  -0.15625 -0.9375 0  -0.125 -0.9375 0  -0.09375 -0.9375 0  -0.0625 -0.9375 0  -0.03125 -0.9375 0  0 -0.9375 0  0.03125 -0.9375 0  0.0625 -0.9375 0  0.09375 -0.9375 0  0.125 -0.9375 0  0.15625 -0.9375 0  0.1875 -0.9375 0  0.21875 -0.9375 0  0.25 -0.9375 0  0.28125 -0.9375 0  0.3125 -0.9375 0  0.34375 -0.9375 0  0.375 -0.9375 0  0.40625 -0.9375 0  0.4375 -0.9375 0  0.46875 -0.9375 0  0.5 -0.9375 0  0.53125 -0.9375 0  0.5625 -0.9375 0  0.59375 -0.9375 0  0.625 -0.9375 0  0.65625 -0.9375 0  0.6875 -0.9375 0  0.71875 -0.9375 0  0.75 -0.9375 0  0.78125 -0.9375 0  0.8125 -0.9375 0  0.84375 -0.9375 0  0.875 -0.9375 0  0.90625 -0.9375 0  0.9375 -0.9375 0  0.96875 -0.9375 0  1 -0.9375 0  -1 -0.90625 0  -0.96875 -0.90625 0  -0.9375 -0.90625 0  -0.90625 -0.90625 0  -0.875 -0.90625 0  -0.84375 -0.90625 0  -0.8125 -0.90625 0  -0.78125 -0.90625 0  -0.75 -0.90625 0  -0.71875 -0.90625 0  -0.6875 -0.90625 0  -0.65625 -0.90625 0  -0.625 -0.90625 0  -0.59375 -0.90625 0  -0.5625 -0.90625 0  -0.53125 -0.90625 0  -0.5 -0.90625 0  -0.46875 -0.90625 0  -0.4375 -0.90625 0  -0.40625 -0.90625 0  -0.375 -0.90625 0  -0.34375 -0.90625 0  -0.3125 -0.90625 0  -0.28125 -0.90625 0  -0.25 -0.90625 0  -0.21875 -0.90625 0  -0.1875 -0.90625 0  -0.15625 -0.90625 0  -0.125 -0.90625 0  -0.09375 -0.90625 0  -0.0625 -0.90625 0  -0.03125 -0.90625 0  0 -0.90625 0  0.03125 -0.90625 0  0.0625 -0.90625 0  0.09375 -0.90625 0  0.125 -0.90625 0  0.15625 -0.90625 0  0.1875 -0.90625 0  0.21875 -0.90625 0  0.25 -0.90625 0  0.28125 -0.90625 0  0.3125 -0.90625 0  0.34375 -0.90625 0  0.375 -0.90625 0  0.40625 -0.90625 0  0.4375 -0.90625 0  0.46875 -0.90625 0  0.5 -0.90625 0  0.53125 -0.90625 0  0.5625 -0.90625 0  0.59375 -0.90625 0  0.625 -0.90625 0  0.65625 -0.90625 0  0.6875 -0.90625 0  0.71875 -0.90625 0  0.75 -0.90625 0  0.78125 -0.90625 0  0.8125 -0.90625 0  0.84375 -0.90625 0  0.875 -0.90625 0  0.90625 -0.90625 0  0.9375 -0.90625 0  0.96875 -0.90625 0  1 -0.90625 0  -1 -0.875 0  -0.96875 -0.875 0  -0.9375 -0.875 0  -0.90625 -0.875 0  -0.875 -0.875 0  -0.84375 -0.875 0  -0.8125 -0.875 0  -0.78125 -0.875 0  -0.75 -0.875 0  -0.71875 -0.875 0  -0.6875 -0.875 0  -0.65625 -0.875 0  -0.625 -0.875 0  -0.59375 -0.875 0  -0.5625 -0.875 0  -0.53125 -0.875 0  -0.5 -0.875 0  -0.46875 -0.875 0  -0.4375 -0.875 0  -0.40625 -0.875 0  -0.375 -0.875 0  -0.34375 -0.875 0  -0.3125 -0.875 0  -0.28125 -0.875 0  -0.25 -0.875 0  -0.21875 -0.875 0  -0.1875 -0.875 0  -0.15625 -0.875 0  -0.125 -0.875 0  -0.09375 -0.875 0  -0.0625 -0.875 0  -0.03125 -0.875 0  0 -0.875 0  0.03125 -0.875 0  0.0625 -0.875 0  0.09375 -0.875 0  0.125 -0.875 0  0.15625 -0.875 0  0.1875 -0.875 0  0.21875 -0.875 0  0.25 -0.875 0  0.28125 -0.875 0  0.3125 -0.875 0  0.34375 -0.875 0  0.375 -0.875 0  0.40625 -0.875 0  0.4375 -0.875 0  0.46875 -0.875 0  0.5 -0.875 0  0.53125 -0.875 0  0.5625 -0.875 0  0.59375 -0.875 0  0.625 -0.875 0  0.65625 -0.875 0  0.6875 -0.875 0  0.71875 -0.875 0  0.75 -0.875 0  0.78125 -0.875 0  0.8125 -0.875 0  0.84375 -0.875 0  0.875 -0.875 0  0.90625 -0.875 0  0.9375 -0.875 0  0.96875 -0.875 0  1 -0.875 0  -1 -0.84375 0  -0.96875 -0.84375 0  -0.9375 -0.84375 0  -0.90625 -0.84375 0  -0.875 -0.84375 0  -0.84375 -0.84375 0  -0.8125 -0.84375 0  -0.78125 -0.84375 0  -0.75 -0.84375 0  -0.71875 -0.84375 0  -0.6875 -0.84375 0  -0.65625 -0.84375 0  -0.625 -0.84375 0  -0.59375 -0.84375 0  -0.5625 -0.84375 0  -0.53125 -0.84375 0  -0.5 -0.84375 0  -0.46875 -0.84375 0  -0.4375 -0.84375 0  -0.40625 -0.84375 0  -0.375 -0.84375 0  -0.34375 -0.84375 0  -0.3125 -0.84375 0  -0.28125 -0.84375 0  -0.25 -0.84375 0  -0.21875 -0.84375 0  -0.1875 -0.84375 0  -0.15625 -0.84375 0  -0.125 -0.84375 0  -0.09375 -0.84375 0  -0.0625 -0.84375 0  -0.03125 -0.84375 0  0 -0.84375 0  0.03125 -0.84375 0  0.0625 -0.84375 0  0.09375 -0.84375 0  0.125 -0.84375 0  0.15625 -0.84375 0  0.1875 -0.84375 0  0.21875 -0.84375 0  0.25 -0.84375 0  0.28125 -0.84375 0  0.3125 -0.84375 0  0.34375 -0.84375 0  0.375 -0.84375 0  0.40625 -0.84375 0  0.4375 -0.84375 0  0.46875 -0.84375 0  0.5 -0.84375 0  0.53125 -0.84375 0  0.5625 -0.84375 0  0.59375 -0.84375 0  0.625 -0.84375 0  0.65625 -0.84375 0  0.6875 -0.84375 0  0.71875 -0.84375 0  0.75 -0.84375 0  0.78125 -0.84375 0  0.8125 -0.84375 0  0.84375 -0.84375 0  0.875 -0.84375 0  0.90625 -0.84375 0  0.9375 -0.84375 0  0.96875 -0.84375 0  1 -0.84375 0  -1 -0.8125 0  -0.96875 -0.8125 0  -0.9375 -0.8125 0  -0.90625 -0.8125 0  -0.875 -0.8125 0  -0.84375 -0.8125 0  -0.8125 -0.8125 0  -0.78125 -0.8125 0  -0.75 -0.8125 0  -0.71875 -0.8125 0  -0.6875 -0.8125 0  -0.65625 -0.8125 0  -0.625 -0.8125 0  -0.59375 -0.8125 0  -0.5625 -0.8125 0  -0.53125 -0.8125 0  -0.5 -0.8125 0  -0.46875 -0.8125 0  -0.4375 -0.8125 0  -0.40625 -0.8125 0  -0.375 -0.8125 0  -0.34375 -0.8125 0  -0.3125 -0.8125 0  -0.28125 -0.8125 0  -0.25 -0.8125 0  -0.21875 -0.8125 0  -0.1875 -0.8125 0  -0.15625 -0.8125 0  -0.125 -0.8125 0  -0.09375 -0.8125 0  -0.0625 -0.8125 0  -0.03125 -0.8125 0  0 -0.8125 0  0.03125 -0.8125 0  0.0625 -0.8125 0  0.09375 -0.8125 0  0.125 -0.8125 0  0.15625 -0.8125 0  0.1875 -0.8125 0  0.21875 -0.8125 0  0.25 -0.8125 0  0.28125 -0.8125 0  0.3125 -0.8125 0  0.34375 -0.8125 0  0.375 -0.8125 0  0.40625 -0.8125 0  0.4375 -0.8125 0  0.46875 -0.8125 0  0.5 -0.8125 0  0.53125 -0.8125 0  0.5625 -0.8125 0  0.59375 -0.8125 0  0.625 -0.8125 0  0.65625 -0.8125 0  0.6875 -0.8125 0  0.71875 -0.8125 0  0.75 -0.8125 0  0.78125 -0.8125 0  0.8125 -0.8125 0  0.84375 -0.8125 0  0.875 -0.8125 0  0.90625 -0.8125 0  0.9375 -0.8125 0  0.96875 -0.8125 0  1 -0.8125 0  -1 -0.78125 0  -0.96875 -0.78125 0  -0.9375 -0.78125 0  -0.90625 -0.78125 0  -0.875 -0.78125 0  -0.84375 -0.78125 0  -0.8125 -0.78125 0  -0.78125 -0.78125 0  -0.75 -0.78125 0  -0.71875 -0.78125 0  -0.6875 -0.78125 0  -0.65625 -0.78125 0  -0.625 -0.78125 0  -0.59375 -0.78125 0  -0.5625 -0.78125 0  -0.53125 -0.78125 0  -0.5 -0.78125 0  -0.46875 -0.78125 0  -0.4375 -0.78125 0  -0.40625 -0.78125 0  -0.375 -0.78125 0  -0.34375 -0.78125 0  -0.3125 -0.78125 0  -0.28125 -0.78125 0  -0.25 -0.78125 0  -0.21875 -0.78125 0  -0.1875 -0.78125 0  -0.15625 -0.78125 0  -0.125 -0.78125 0  -0.09375 -0.78125 0  -0.0625 -0.78125 0  -0.03125 -0.78125 0  0 -0.78125 0  0.03125 -0.78125 0  0.0625 -0.78125 0  0.09375 -0.78125 0  0.125 -0.78125 0  0.15625 -0.78125 0  0.1875 -0.78125 0  0.21875 -0.78125 0  0.25 -0.78125 0  0.28125 -0.78125 0  0.3125 -0.78125 0  0.34375 -0.78125 0  0.375 -0.78125 0  0.40625 -0.78125 0  0.4375 -0.78125 0  0.46875 -0.78125 0  0.5 -0.78125 0  0.53125 -0.78125 0  0.5625 -0.78125 0  0.59375 -0.78125 0  0.625 -0.78125 0  0.65625 -0.78125 0  0.6875 -0.78125 0  0.71875 -0.78125 0  0.75 -0.78125 0  0.78125 -0.78125 0  0.8125 -0.78125 0  0.84375 -0.78125 0  0.875 -0.78125 0  0.90625 -0.78125 0  0.9375 -0.78125 0  0.96875 -0.78125 0  1 -0.78125 0  -1 -0.75 0  -0.96875 -0.75 0  -0.9375 -0.75 0  -0.90625 -0.75 0  -0.875 -0.75 0  -0.84375 -0.75 0  -0.8125 -0.75 0  -0.78125 -0.75 0  -0.75 -0.75 0  -0.71875 -0.75 0  -0.6875 -0.75 0  -0.65625 -0.75 0  -0.625 -0.75 0  -0.59375 -0.75 0  -0.5625 -0.75 0  -0.53125 -0.75 0  -0.5 -0.75 0  -0.46875 -0.75 0  -0.4375 -0.75 0  -0.40625 -0.75
[...]
<PointData  Scalars="f_15"> 
<DataArray  type="Float64"  Name="f_15"  format="ascii">-4.6460063435373383e-01  -4.6013704889693957e-01  -4.4691782561245430e-01  -4.2545097183767472e-01  -3.9656144672441535e-01  -3.6135945852134627e-01  -3.2119779989360941e-01  -2.7761986085935064e-01  -2.3230031717686683e-01  -1.8698077349438311e-01  -1.4340283446012431e-01  -1.0324117583238746e-01  -6.8039187629318446e-02  -3.9149662516059038e-02  -1.7682808741279452e-02  -4.4635854567941328e-03  0.0000000000000000e+00  -4.4635854567941328e-03  -1.7682808741279473e-02  -3.9149662516059058e-02  -6.8039187629318487e-02  -1.0324117583238750e-01  -1.4340283446012447e-01  -1.8698077349438319e-01  -2.3230031717686692e-01  -2.7761986085935064e-01  -3.2119779989360930e-01  -3.6135945852134632e-01  -3.9656144672441535e-01  -4.2545097183767472e-01  -4.4691782561245430e-01  -4.6013704889693957e-01  -4.6460063435373383e-01  -4.6013704889693957e-01  -4.4691782561245430e-01  -4.2545097183767472e-01  -3.9656144672441535e-01  -3.6135945852134632e-01  -3.2119779989360930e-01  -2.7761986085935064e-01  -2.3230031717686692e-01  -1.8698077349438319e-01  -1.4340283446012447e-01  -1.0324117583238750e-01  -6.8039187629318487e-02  -3.9149662516059058e-02  -1.7682808741279473e-02  -4.4635854567941328e-03  0.0000000000000000e+00  -4.4635854567941328e-03  -1.7682808741279452e-02  -3.9149662516059038e-02  -6.8039187629318446e-02  -1.0324117583238746e-01  -1.4340283446012431e-01  -1.8698077349438311e-01  -2.3230031717686683e-01  -2.7761986085935064e-01  -3.2119779989360941e-01  -3.6135945852134627e-01  -3.9656144672441535e-01  -4.2545097183767472e-01  -4.4691782561245430e-01  -4.6013704889693957e-01  -4.6460063435373383e-01  -4.6013704889693957e-01  -3.3232469575620693e-01  -2.9426050450029645e-01  -2.3669625927756474e-01  -1.7003025145501260e-01  -9.6549037432093532e-02  -1.8656806754499634e-02  6.1440004217717288e-02  1.4160961616648629e-01  2.1976475395745595e-01  2.9387571990253580e-01  3.6201142299645594e-01  4.2239463594644938e-01  4.7346075488728701e-01  5.1391259412988266e-01  5.4276650130259907e-01  5.5938724586096344e-01  5.6351023521183052e-01  5.5525028986779934e-01  5.3509613246504806e-01  5.0388971398577598e-01  4.6278922568699810e-01  4.1321504781564039e-01  3.5677881294603553e-01  2.9519805556961026e-01  2.3020202691528888e-01  1.6343790131804761e-01  9.6388949871797053e-02  3.0315980632086695e-02  -3.3770662496094735e-02  -9.5108082850101930e-02  -1.5315359045459906e-01  -2.0754474643792856e-01  -2.5805837627906342e-01  -3.0457647788096698e-01  -3.4706121935199719e-01  -3.8553667908317701e-01  -4.2007290579350565e-01  -4.5076892019922332e-01  -4.7773365858908695e-01  -5.0106669517126401e-01  -5.2084200521278756e-01  -5.3709838740184979e-01  -5.4983886010253002e-01  -5.5903971318078560e-01  -5.6466774834335953e-01  -5.6670282910480108e-01  -5.6516166803377899e-01  -5.6011871538142755e-01  -5.5172022946625465e-01  -5.4018892758296333e-01  -5.2581774775487022e-01  -5.0895405930692972e-01  -4.8997495683991776e-01  -4.6926558428450887e-01  -4.4718549169597405e-01  -4.2411070101795478e-01  -4.0033696253938650e-01  -3.7664947785497033e-01  -3.5331376236836665e-01  -3.3462918384588991e-01  -3.1760979819854118e-01  -3.2789847384743076e-01  -3.0997970183251877e-01  -4.6013704889693957e-01  -4.4691782561245430e-01  -3.1794199455478322e-01  -3.1599246641548862e-01  -2.7651966112602122e-01  -2.3180517472204540e-01  -1.8117055555099537e-01  -1.2656243545099563e-01  -6.9658049853285831e-02  -1.2109380151221023e-02  4.4453116915263526e-02  9.8430226944711027e-02  1.4828787982601915e-01  1.9260623507196159e-01  2.3013454937589084e-01  2.5984372973396447e-01  2.8097091332344626e-01  2.9305236708243004e-01  2.9594264564725853e-01  2.8981855567588205e-01  2.7516701067925742e-01  2.5275592586733781e-01  2.2358805117532601e-01  1.8883871519833084e-01  1.4978077099866799e-01  1.0770279136871760e-01  6.3829591029440816e-02  1.9255647878674127e-02  -2.5098869287442496e-02  -6.8503833485380056e-02  -1.1040721563922234e-01  -1.5040240077277936e-01  -1.8818586290666037e-01  -2.2351679638342370e-01  -2.5618748999542112e-01  -2.8600839327462996e-01  -3.1280721721411348e-01  -3.3643812483284985e-01  -3.5679603903217866e-01  -3.7383141638672684e-01  -3.8756225688025098e-01  -3.9808123371143700e-01  -4.0555692402899257e-01  -4.1022845950199383e-01  -4.1239353595657857e-01  -4.1239012417026538e-01  -4.1057329292765049e-01  -4.0728935611949879e-01  -4.0285061886925733e-01  -3.9751419066706750e-01  -3.9146828546215551e-01  -3.8482834680135836e-01  -3.7764386670424932e-01  -3.6991586880342592e-01  -3.6162089951318438e-01  -3.5274767761804515e-01  -3.4331810692145109e-01  -3.3348880732748076e-01  -3.2344741978753627e-01  -3.1407611186946177e-01  -3.0544856481145766e-01  -3.0224698312642040e-01  -2.9822999381178472e-01  -3.2245157009846526e-01  -2.9098295270580093e-01  -4.4691782561245430e-01  -4.2545097183767472e-01  -3.1504992420774358e-01  -3.0285274060718087e-01  -2.5966469548755006e-01  -2.1389196937165778e-01  -1.6203800630215590e-01  -1.0633949120722321e-01  -4.8299696654486121e-02  1.0519108523049570e-02  6.8541502397428233e-02  1.2418833372243789e-01  1.7591301179352883e-01  2.2225479574538651e-01  2.6190102227230327e-01  2.9374963987171138e-01  3.1696461572012707e-01  3.3101864695659294e-01  3.3571929048597715e-01  3.3121607491483374e-01  3.1798719521776392e-01  2.9680552138492788e-01  2.6868506621272892e-01  2.3481114808546066e-01  1.9645998299999684e-01  1.5491588944971024e-01  1.1139566537225105e-01  6.6989219565403671e-02  2.2622799393556194e-02  -2.0953256046164100e-02  -6.3155100319719534e-02  -1.0354089549304778e-01  -1.4177948784916283e-01  -1.7761989604110612e-01  -2.1086700513214679e-01  -2.4136594782131127e-01  -2.6899495255824435e-01  -2.9366461298680241e-01  -3.1532073160870439e-01  -3.3394802771045878e-01  -3.4957263486646051e-01  -3.6226219668095000e-01  -3.7212311261204578e-01  -3.7929513530094344e-01  -3.8394389549845170e-01  -3.8625223317883112e-01  -3.8641132022167940e-01  -3.8461263281085939e-01  -3.8104167615379086e-01  -3.7587420415242234e-01  -3.6927528597600312e-01  -3.6140140589329922e-01  -3.5240517410152095e-01  -3.4244334719597186e-01  -3.3168513798106891e-01  -3.2033235383243608e-01  -3.0861796479885928e-01  -2.9690724550626052e-01  -2.8552546118113248e-01  -2.7555196937632359e-01  -2.6673828438601022e-01  -2.6435881621757129e-01  -2.5838047116266288e-01  -2.8448496819215846e-01  -2.2852254558493082e-01  -4.2545097183767472e-01  -3.9656144672441535e-01  -3.2609980998887367e-01  -3.0274038704064132e-01  -2.6147103843481162e-01  -2.1790638243897253e-01  -1.6990605850692148e-01  -1.1935763391571577e-01  -6.7361450233625067e-02  -1.5187850549434079e-02  3.5890421576609537e-02  8.4605471761207043e-02  1.2972706892289063e-01  1.7010423306368275e-01  2.0471267495402878e-01  2.3270248576092065e-01  2.5344038643313455e-01  2.6654161367511003e-01  2.7188766098411282e-01  2.6962758042229112e-01  2.6016202397647425e-01  2.4411094266755545e-01  2.2226752197438210e-01  1.9554270954705058e-01  1.6490596775105829e-01  1.3132856717845451e-01  9.5735247331832127e-02  5.8968601430511094e-02  2.1768184576160657e-02  -1.5236148447274956e-02  -5.1519352518333547e-02  -8.6648711246141999e-02  -1.2026806634308178e-01  -1.5208249648463723e-01  -1.8184602955925447e-01  -2.0935361364623487e-01  -2.3443727720648663e-01  -2.5696555028110685e-01  -2.7684473018776395e-01  -2.9402060926526308e-01  -3.0847950008776781e-01  -3.2024784189768019e-01  -3.2939000437279670e-01  -3.3600428227610946e-01  -3.4021726180553236e-01  -3.4217701579306065e-01  -3.4204569421768211e-01  -3.3999230330180985e-01  -3.3618650550416784e-01  -3.3079434005971931e-01  -3.2397655392125002e-01  -3.1589013400017907e-01  -3.0669289887746515e-01  -2.9655219579580927e-01  -2.8565380045212935e-01  -2.7422465537523649e-01  -2.6252597161886393e-01  -2.5096936296074357e-01  -2.3987531636090198e-01  -2.3043146417886565e-01  -2.2196400193982269e-01  -2.2049863280360382e-01  -2.1208671910970256e-01  -2.4069161678932452e-01  -1.6276639069535501e-01  -3.9656144672441535e-01  -3.6135945852134627e-01  -3.4464157683506436e-01  -3.0744867344768301e-01  -2.6548773250701635e-01  -2.2130544406575636e-01  -1.7433892311099430e-01  -1.2567440615839592e-01  -7.6168733266311503e-02  -2.6859144443337989e-02  2.1199001249932931e-02  6.6936012646103285e-02  1.0930441522546916e-01  1.4731727960118213e-01  1.8009051840662471e-01  2.0688517020706973e-01  2.2714531794098805e-01  2.4052724122947935e-01  2.4691628832660284e-01  2.4642912425904817e-01  2.3940072102137958e-01  2.2635704686509978e-01  2.0797618741853735e-01  1.8504188375903136e-01  1.5839442005488641e-01  1.2888382663891157e-01  9.7329810863684058e-02  6.4491453771718568e-02  3.1048076832419544e-02  -2.4091033024962651e-03  -3.5376303484767335e-02  -6.7430181627568336e-02  -9.8217491690275188e-02  -1.2744406052807150e-01  -1.5486509243654697e-01  -1.8027789342531775e-01  -2.0351730791142547e-01  -2.2445342951079086e-01  -2.4299083743795408e-01  -2.5906841725223678e-01  -2.7265901921252067e-01  -2.8376833340237095e-01  -2.9243273557805904e-01  -2.9871600826923167e-01  -3.0270517917864331e-01  -3.0450576812539776e-01  -3.0423699060374854e-01  -3.0202741418956558e-01  -2.9801169569702657e-01  -2.9232883797600578e-01  -2.8512236819618586e-01  -2.7654266450905168e-01  -2.6675119453731905e-01  -2.5592786803873885e-01  -2.4427710504142369e-01  -2.3204921833880038e-01  -2.1952346575973641e-01  -2.0713960583501614e-01  -1.9517913930809139e-01  -1.8492746452956824e-01  -1.7522034426580052e-01  -1.7303772397664366e-01  -1.6028626074955349e-01  -1.9059112383294913e-01  -8.9431334090693843e-02  -3.6135945852134627e-01  -3.2119779989360941e-01  -3.6662336704881920e-01  -3.1545706444270877e-01  -2.7350575525462240e-01  -2.2907976033886818e-01  -1.8331181835148755e-01  -1.3670208030274000e-01  -8.9942363596519109e-02  -4.3841240934664891e-02  7.5016755485928421e-04  4.2962044404169238e-02  8.1944629649922510e-02  1.1690257077645930e-01  1.4712994388211373e-01  1.7204319701727086e-01  1.9120933917897084e-01  2.0436669314006176e-01  2.1143592404351996e-01  2.1252009116899828e-01  2.0789350764863071e-01  1.9798052806441155e-01  1.8332635966085853e-01  1.6456290592852688e-01  1.4237295004970013e-01  1.1745600199533729e-01  9.0498536894700679e-02  6.2150574958190062e-02  3.3009481581987195e-02  3.6109024291042543e-03  -2.5574119065421504e-02  -5.4137340080119709e-02  -8.1728564672711237e-02  -1.0804960841451126e-01  -1.3284829856636809e-01  -1.5591340113268046e-01  -1.7707081857755838e-01  -1.9618104562931821e-01  -2.1313750766013206e-01  -2.2786536387647183e-01  -2.4032027072059861e-01  -2.5048681084856222e-01  -2.5837633036458713e-01  -2.6402420986641517e-01  -2.6748662295804965e-01  -2.6883708879629603e-01  -2.6816307993943933e-01  -2.6556313656939506e-01  -2.6114479734977913e-01  -2.5502376999152354e-01  -2.4732449600177836e-01  -2.3818243888802063e-01  -2.2774769156967686e-01  -2.1619151926278707e-01  -2.0371054657548093e-01  -1.9054835622849314e-01  -1.7696955825737268e-01  -1.6341115111972171e-01  -1.5008158236739186e-01  -1.3836080118183935e-01  -1.2654270163824669e-01  -1.2275234508680988e-01  -1.0453231409376314e-01  -1.3624437937344872e-01  -1.1899462028178485e-02  -3.2119779989360941e-01  -2.7761986085935064e-01  -3.8982596017905335e-01  -3.2501388124118302e-01  -2.8360235661751065e-01  -2.3882618113836884e-01  -1.9393524706237547e-01  -1.4888316866605439e-01  -1.0422022997223161e-01  -6.0564757769324198e-02  -1.8599977804693302e-02  2.0968761243356972e-02  5.7448584636128765e-02  9.0190354710655826e-02  1.1861873974355293e-01  1.4225930424806743e-01  1.6076121350669870e-01  1.7391373564548970e-01  1.8165506510053814e-01  1.8407257467294777e-01  1.8139443038179759e-01  1.7397337309987265e-01  1.6226426991134746e-01  1.4679763089384307e-01  1.2815157277595365e-01  1.0692467941554520e-01  8.3711847989165061e-02  5.9084630353923979e-02  3.3576850263470834e-02  7.6755661816799610e-03  -1.8183179533370921e-02  -4.3614805944657588e-02  -6.8284028804774591e-02  -9.1901260138387425e-02  -1.1421856359842021e-01  -1.3502585728461861e-01  -1.5414773094403594e-01  -1.7144095340445351e-01  -1.8679253853897965e-01  -2.0011812226575262e-01  -2.1136039007916219e-01  -2.2048733503485832e-01  -2.2749022731488716e-01  -2.3238127421895668e-01  -2.3519106143695645e-01  -2.3596594577478264e-01  -2.3476564387863097e-01  -2.3166127133085559e-01  -2.2673410907176386e-01  -2.2007531195784749e-01  -2.1178671485837669e-01  -2.0198293409778165e-01  -1.9079440009836118e-01  -1.7837308136904356e-01  -1.6489498672583891e-01  -1.5058218023623812e-01  -1.3566820038390787e-01  -1.2057148148425743e-01  -1.0540868785796197e-01  -9.1657226932009714e-02  -7.7031986972611946e-02  -7.0955813887893487e-02  -4.6437291467831071e-02  -7.9374767250412190e-02  6.7810916509948888e-02  -2.7761986085935064e-01  -2.3230031717686683e-01  -4.1318050669645201e-01  -3.3507579361058071e-01  -2.9485382804407823e-01  -2.4989374903532974e-01  -2.0587387303449745e-01  -1.6221095778608879e-01  -1.1938390038758974e-01  -7.7861879238142431e-02  -3.8190240128262568e-02  -9.3620236554069669e-04  3.3340714422635163e-02  6.4117396033788285e-02  9.0932678865527639e-02  1.1340946875917285e-01  1.3127261057197590e-01  1.4436142355429271e-01  1.5263609752688692e-01  1.5617746965253149e-01  1.5518033486361998e-01  1.4994092427275638e-01  1.4083980477829786e-01  1.2832172604642467e-01  1.1287421788061433e-01  9.5006611135477301e-02  7.5231009289492515e-02  5.4046276046700883e-02  3.1925700351970704e-02  9.3084666332319491e-03  -1.3405319143981492e-02  -3.5856637004453067e-02  -5.7727341476378320e-02  -7.8738512130209243e-02  -9.8648071864119918e-02  -1.1724819050974242e-01  -1.3436282780938433e-01  -1.4984553439803405e-01  -1.6357753333463443e-01  -1.7546595701432960e-01  -1.8544214188043304e-01  -1.9345983360570079e-01  -1.9949327518507226e-01  -2.0353513999921821e-01  -2.0559442006531917e-01  -2.0569435113437720e-01  -2.0387058197523547e-01  -2.0016973599183291e-01  -1.9464857541717498e-01  -1.8737389575358523e-01  -1.7842326796797831e-01  -1.6788680094962588e-01  -1.5586955932513846e-01  -1.4249658331343243e-01  -1.2791397969391624e-01  -1.1231164260019495e-01  -9.5880756987729618e-02  -7.9009965265322959e-02  -6.1712776545384651e-02  -4.5563804394040688e-02  -2.7679254610764849e-02  -1.8877567173773931e-02  1.2427119144840871e-02  -2.1646286209397063e-02  1.4757512728370228e-01  -2.3230031717686683e-01  -1.8698077349438311e-01  -4.3617161408980804e-01  -3.4503864011308744e-01  -3.0658550859979872e-01  -2.6156707323598560e-01  -2.1838438169135313e-01  -1.7592520663229663e-01  -1.3465262728966670e-01  -9.4915908269456159e-02  -5.7150950272965476e-02  -2.1812218695492300e-02  1.0650475407489698e-02  3.9817444227994277e-02  6.5320535287468673e-02  8.6861313421553329e-02  1.0422535764541010e-01  1.1729211949105539e-01  1.2603983353578202e-01  1.3054530683846316e-01  1.3097869523540481e-01  1.2759385213632615e-01  1.2071510239388965e-01  1.1072163859423331e-01  9.8030782997299601e-02  8.3081421936813699e-02  6.6318690100324498e-02  4.8180783006001031e-02  2.9088392482098768e-02  9.4369722413972373e-03  -1.0408304389757699e-02  -3.0115236844476961e-02  -4.9385436813003933e-02  -6.7953851902638043e-02  -8.5587467774440040e-02  -1.0208360328468905e-01  -1.1726806275196058e-01  -1.3099331969505235e-01  -1.4313676378925860e-01  -1.5359901688461391e-01  -1.6230224324023429e-01  -1.6918843410311379e-01  -1.7421761308706554e-01  -1.7736601107683966e-01  -1.7862422856578966e-01  -1.7799551895818175e-01  -1.7549427325948463e-01  -1.7114486955314800e-01  -1.6498097693173228e-01  -1.5704545893436070e-01  -1.4739090369673855e-01  -1.3608101326007568e-01  -1.2319241611878380e-01  -1.0881907182168783e-01  -9.3072189873032188e-02  -7.6103605764667834e-02  -5.8056366692079926e-02  -3.9282186507715561e-02  -1.9687456112683750e-02  -9.3775173927472511e-04  2.0444400290371676e-02  3.2215328176664837e-02  7.0464864947340236e-02  3.5296867657427421e-02  2.2532118945122809e-01  -1.8698077349438311e-01  -1.4340283446012431e-01  -4.5847385942362850e-01  -3.5456585464681822e-01  -3.1834543472360671e-01  -2.7336186300252469e-01  -2.3100113213098888e-01  -1.8960711423792528e-01  -1.4967261457189582e-01  -1.1145344744694906e-01  -7.5301498389573132e-02  -4.1579842849406440e-02  -1.0647955145878189e-02  1.7160487633735195e-02  4.1555206990088078e-02  6.2304117790019806e-02  7.9244707735381142e-02  9.2291700903548837e-02  1.0144076825761865e-01  1.0676820099186331e-01  1.0842675013953940e-01  1.0663805481828881e-01  1.0168236238197262e-01  9.3886374028316705e-02  8.3610175698411213e-02  7.1234157876033113e-02  5.7146765103554105e-02  4.1733697228057719e-02  2.5368999252340946e-02  8.4082079299191356e-03  -8.8164611084521876e-03  -2.5999094780676975e-02  -4.2861538537827051e-02  -5.9153687970862866e-02  -7.4652968550342952e-02  -8.9163301500287950e-02  -1.0251378939664867e-01  -1.1455726113772749e-01  -1.2516876405995006e-01  -1.3424401918688750e-01  -1.4169785162152471e-01  -1.4746257224266526e-01  -1.5148633252390761e-01  -1.5373145547580017e-01  -1.5417281469940730e-01  -1.5279630656274434e-01  -1.4959752538244608e-01  -1.4458071118594201e-01  -1.3775807695687872e-01  -1.2914958050591460e-01  -1.1878320363450373e-01  -1.0669592101871951e-01  -9.2934992279670295e-02  -7.7561769890710175e-02  -6.0650718277543716e-02  -4.2313129414352710e-02  -2.2642233483804501e-02  -1.9483514752547755e-03  1.9966158792157129e-02  4.1358752275617722e-02  6.6264825807535899e-02  8.1065339746180187e-02  1.2608400707075831e-01  8.9844325797451649e-02  2.9902581330212336e-01  -1.4340283446012431e-01  -1.0324117583238746e-01  -4.7978569516210257e-01  -3.6348535092112294e-01  -3.2981314279175089e-01  -2.8491053911269981e-01  -2.4334412515489368e-01  -2.0288894248055286e-01  -1.6410482977811000e-01  -1.2717366066339286e-01  -9.2383386565344713e-02  -6.0023175348552296e-02  -3.0378254842223434e-02  -3.7108077315288288e-03  1.9753979553821972e-02  3.9839741991912772e-02  5.6427870659378022e-02  6.9463442666492597e-02  7.8957995964357389e-02  8.4989157517464026e-02  8.7697299211488777e-02  8.7279577808694220e-02  8.3981874974329296e-02  7.8089274608500708e-02  6.9915766185642186e-02  5.9793865296895211e-02  4.8064757635305440e-02  3.5069466148295758e-02  2.1141366917504695e-02  6.6002367366873420e-03  -8.2521594496070619e-03  -2.3135041763567600e-02  -3.7790351106753536e-02  -5.1983482154096004e-02  -6.5503265272396194e-02  -7.8161415426846279e-02  -8.9791631613763453e-02  -1.0024847237255377e-01  -1.0940609345438662e-01  -1.1715689174360044e-01  -1.2341007990115618e-01  -1.2809020780978703e-01  -1.3113564680171752e-01  -1.3249706933966451e-01  -1.3213596043707534e-01  -1.3002322190919630e-01  -1.2613792703366936e-01  -1.2046629745226281e-01  -1.1300096105309555e-01  -1.0374056362880607e-01  -9.2689768601981193e-02  -7.9859849620105144e-02  -6.5269513142447444e-02  -4.8948172076374426e-02  -3.0934301267552637e-02  -1.1299052394962998e-02  9.9122812840535049e-03  3.2432856181982460e-02  5.6554121087754393e-02  8.0478306244626374e-02  1.0872872002270455e-01  1.2644694424740949e-01  1.7772913228689019e-01  1.4044850533270636e-01  3.6675928712697753e-01  -1.0324117583238746e-01  -6.8039187629318446e-02  -4.9976915281028761e-01  -3.7172634185144782e-01  -3.4074599293672786e-01  -2.9592896616572950e-01  -2.5511383282786421e-01  -2.1548329841397848e-01  -1.7769138396235848e-01  -1.4185919446562800e-01  -1.0822627994297281e-01  -7.7021690414304012e-02  -4.8469257479588544e-02  -2.2771266971851015e-02  -9.7968981607156704e-05  1.9421637421955663e-02  3.5706651168327753e-02  4.8728756145504121e-02  5.8514225600957349e-02  6.5143490294485518e-02  6.8748408474784251e-02  6.9507533057482390e-02  6.7639754978839686e-02  6.3396806711824405e-02  5.7055132012285931e-02  4.8907634112008769e-02  3.9255759813264721e-02  2.8402291