<?xml version="1.0"?>
<VTKFile type="UnstructuredGrid"  version="0.1"  >
<UnstructuredGrid>
<Piece  NumberOfPoints="4225" NumberOfCells="8192">
<Points>
<DataArray  type="Float64"  NumberOfComponents="3"  format="ascii">-1 -1 0  -0.96875 -1 0  -0.9375 -1 0  -0.90625 -1 0  -0.875 -1 0  -0.84375 -1 0  -0.8125 -1 0  -0.78125 -1 0  -0.75 -1 0  -0.71875 -1 0  -0.6875 -1 0  -0.65625 -1 0  -0.625 -1 0  -0.59375 -1 0  -0.5625 -1 0  -0.53125 -1 0  -0.5 -1 0  -0.46875 -1 0  -0.4375 -1 0  -0.40625 -1 0  -0.375 -1 0  -0.34375 -1 0  -0.3125 -1 0  -0.28125 -1 0  -0.25 -1 0  -0.21875 -1 0  -0.1875 -1 0  -0.15625 -1 0  -0.125 -1 0  -0.09375 -1 0  -0.0625 -1 0  -0.03125 -1 0  0 -1 0  0.03125 -1 0  0.0625 -1 0  0.09375 -1 0  0.125 -1 0  0.15625 -1 0  0.1875 -1 0  0.21875 -1 0  0.25 -1 0  0.28125 -1 0  0.3125 -1 0  0.34375 -1 0  0.375 -1 0  0.40625 -1 0  0.4375 -1 0  0.46875 -1 0  0.5 -1 0  0.53125 -1 0  0.5625 -1 0  0.59375 -1 0  0.625 -1 0  0.65625 -1 0  0.6875 -1 0  0.71875 -1 0  0.75 -1 0  0.78125 -1 0  0.8125 -1 0  0.84375 -1 0  0.875 -1 0  0.90625 -1 0  0.9375 -1 0  0.96875 -1 0  1 -1 0  -1 -0.96875 0  -0.96875 -0.96875 0  -0.9375 -0.96875 0  -0.90625 -0.96875 0  -0.875 -0.96875 0  -0.84375 -0.96875 0  -0.8125 -0.96875 0  -0.78125 -0.96875 0  -0.75 -0.96875 0  -0.71875 -0.96875 0  -0.6875 -0.96875 0  -0.65625 -0.96875 0  -0.625 -0.96875 0  -0.59375 -0.96875 0  -0.5625 -0.96875 0  -0.53125 -0.96875 0  -0.5 -0.96875 0  -0.46875 -0.96875 0  -0.4375 -0.96875 0  -0.40625 -0.96875 0  -0.375 -0.96875 0  -0.34375 -0.96875 0  -0.3125 -0.96875 0  -0.28125 -0.96875 0  -0.25 -0.96875 0  -0.21875 -0.96875 0  -0.1875 -0.96875 0  -0.15625 -0.96875 0  -0.125 -0.96875 0  -0.09375 -0.96875 0  -0.0625 -0.96875 0  -0.03125 -0.96875 0  0 -0.96875 0  0.03125 -0.96875 0  0.0625 -0.96875 0  0.09375 -0.96875 0  0.125 -0.96875 0  0.15625 -0.96875 0  0.1875 -0.96875 0  0.21875 -0.96875 0  0.25 -0.96875 0  0.28125 -0.96875 0  0.3125 -0.96875 0  0.34375 -0.96875 0  0.375 -0.96875 0  0.40625 -0.96875 0  0.4375 -0.96875 0  0.46875 -0.96875 0  0.5 -0.96875 0  0.53125 -0.96875 0  0.5625 -0.96875 0  0.59375 -0.96875 0  0.625 -0.96875 0  0.65625 -0.96875 0  0.6875 -0.96875 0  0.71875 -0.96875 0  0.75 -0.96875 0  0.78125 -0.96875 0  0.8125 -0.96875 0  0.84375 -0.96875 0  0.875 -0.96875 0  0.90625 -0.96875 0  0.9375 -0.96875 0  0.96875 -0.96875 0  1 -0.96875 0  -1 -0.9375 0  -0.96875 -0.9375 0  -0.9375 -0.9375 0  -0.90625 -0.9375 0  -0.875 -0.9375 0  -0.84375 -0.9375 0  -0.8125 -0.9375 0  -0.78125 -0.9375 0  -0.75 -0.9375 0  -0.71875 -0.9375 0  -0.6875 -0.9375 0  -0.65625 -0.9375 0  -0.625 -0.9375 0  -0.59375 -0.9375 0  -0.5625 -0.9375 0  -0.53125 -0.9375 0  -0.5 -0.9375 0  -0.46875 -0.9375 0  -0.4375 -0.9375 0  -0.40625 -0.9375 0  -0.375 -0.9375 0  -0.34375 -0.9375 0  -0.3125 -0.9375 0  -0.28125 -0.9375 0  -0.25 -0.9375 0  -0.21875 -0.9375 0  -0.1875 -0.9375 0  -0.15625 -0.9375 0  -0.125 -0.9375 0  -0.09375 -0.9375 0  -0.0625 -0.9375 0  -0.03125 -0.9375 0  0 -0.9375 0  0.03125 -0.9375 0  0.0625 -0.9375 0  0.09375 -0.9375 0  0.125 -0.9375 0  0.15625 -0.9375 0  0.1875 -0.9375 0  0.21875 -0.9375 0  0.25 -0.9375 0  0.28125 -0.9375 0  0.3125 -0.9375 0  0.34375 -0.9375 0  0.375 -0.9375 0  0.40625 -0.9375 0  0.4375 -0.9375 0  0.46875 -0.9375 0  0.5 -0.9375 0  0.53125 -0.9375 0  0.5625 -0.9375 0  0.59375 -0.9375 0  0.625 -0.9375 0  0.65625 -0.9375 0  0.6875 -0.9375 0  0.71875 -0.9375 0  0.75 -0.9375 0  0.78125 -0.9375 0  0.8125 -0.9375 0  0.84375 -0.9375 0  0.875 -0.9375 0  0.90625 -0.9375 0  0.9375 -0.9375 0  0.96875 -0.9375 0  1 -0.9375 0  -1 -0.90625 0  -0.96875 -0.90625 0  -0.9375 -0.90625 0  -0.90625 -0.90625 0  -0.875 -0.90625 0  -0.84375 -0.90625 0  -0.8125 -0.90625 0  -0.78125 -0.90625 0  -0.75 -0.90625 0  -0.71875 -0.90625 0  -0.6875 -0.90625 0  -0.65625 -0.90625 0  -0.625 -0.90625 0  -0.59375 -0.90625 0  -0.5625 -0.90625 0  -0.53125 -0.90625 0  -0.5 -0.90625 0  -0.46875 -0.90625 0  -0.4375 -0.90625 0  -0.40625 -0.90625 0  -0.375 -0.90625 0  -0.34375 -0.90625 0  -0.3125 -0.90625 0  -0.28125 -0.90625 0  -0.25 -0.90625 0  -0.21875 -0.90625 0  -0.1875 -0.90625 0  -0.15625 -0.90625 0  -0.125 -0.90625 0  -0.09375 -0.90625 0  -0.0625 -0.90625 0  -0.03125 -0.90625 0  0 -0.90625 0  0.03125 -0.90625 0  0.0625 -0.90625 0  0.09375 -0.90625 0  0.125 -0.90625 0  0.15625 -0.90625 0  0.1875 -0.90625 0  0.21875 -0.90625 0  0.25 -0.90625 0  0.28125 -0.90625 0  0.3125 -0.90625 0  0.34375 -0.90625 0  0.375 -0.90625 0  0.40625 -0.90625 0  0.4375 -0.90625 0  0.46875 -0.90625 0  0.5 -0.90625 0  0.53125 -0.90625 0  0.5625 -0.90625 0  0.59375 -0.90625 0  0.625 -0.90625 0  0.65625 -0.90625 0  0.6875 -0.90625 0  0.71875 -0.90625 0  0.75 -0.90625 0  0.78125 -0.90625 0  0.8125 -0.90625 0  0.84375 -0.90625 0  0.875 -0.90625 0  0.90625 -0.90625 0  0.9375 -0.90625 0  0.96875 -0.90625 0  1 -0.90625 0  -1 -0.875 0  -0.96875 -0.875 0  -0.9375 -0.875 0  -0.90625 -0.875 0  -0.875 -0.875 0  -0.84375 -0.875 0  -0.8125 -0.875 0  -0.78125 -0.875 0  -0.75 -0.875 0  -0.71875 -0.875 0  -0.6875 -0.875 0  -0.65625 -0.875 0  -0.625 -0.875 0  -0.59375 -0.875 0  -0.5625 -0.875 0  -0.53125 -0.875 0  -0.5 -0.875 0  -0.46875 -0.875 0  -0.4375 -0.875 0  -0.40625 -0.875 0  -0.375 -0.875 0  -0.34375 -0.875 0  -0.3125 -0.875 0  -0.28125 -0.875 0  -0.25 -0.875 0  -0.21875 -0.875 0  -0.1875 -0.875 0  -0.15625 -0.875 0  -0.125 -0.875 0  -0.09375 -0.875 0  -0.0625 -0.875 0  -0.03125 -0.875 0  0 -0.875 0  0.03125 -0.875 0  0.0625 -0.875 0  0.09375 -0.875 0  0.125 -0.875 0  0.15625 -0.875 0  0.1875 -0.875 0  0.21875 -0.875 0  0.25 -0.875 0  0.28125 -0.875 0  0.3125 -0.875 0  0.34375 -0.875 0  0.375 -0.875 0  0.40625 -0.875 0  0.4375 -0.875 0  0.46875 -0.875 0  0.5 -0.875 0  0.53125 -0.875 0  0.5625 -0.875 0  0.59375 -0.875 0  0.625 -0.875 0  0.65625 -0.875 0  0.6875 -0.875 0  0.71875 -0.875 0  0.75 -0.875 0  0.78125 -0.875 0  0.8125 -0.875 0  0.84375 -0.875 0  0.875 -0.875 0  0.90625 -0.875 0  0.9375 -0.875 0  0.96875 -0.875 0  1 -0.875 0  -1 -0.84375 0  -0.96875 -0.84375 0  -0.9375 -0.84375 0  -0.90625 -0.84375 0  -0.875 -0.84375 0  -0.84375 -0.84375 0  -0.8125 -0.84375 0  -0.78125 -0.84375 0  -0.75 -0.84375 0  -0.71875 -0.84375 0  -0.6875 -0.84375 0  -0.65625 -0.84375 0  -0.625 -0.84375 0  -0.59375 -0.84375 0  -0.5625 -0.84375 0  -0.53125 -0.84375 0  -0.5 -0.84375 0  -0.46875 -0.84375 0  -0.4375 -0.84375 0  -0.40625 -0.84375 0  -0.375 -0.84375 0  -0.34375 -0.84375 0  -0.3125 -0.84375 0  -0.28125 -0.84375 0  -0.25 -0.84375 0  -0.21875 -0.84375 0  -0.1875 -0.84375 0  -0.15625 -0.84375 0  -0.125 -0.84375 0  -0.09375 -0.84375 0  -0.0625 -0.84375 0  -0.03125 -0.84375 0  0 -0.84375 0  0.03125 -0.84375 0  0.0625 -0.84375 0  0.09375 -0.84375 0  0.125 -0.84375 0  0.15625 -0.84375 0  0.1875 -0.84375 0  0.21875 -0.84375 0  0.25 -0.84375 0  0.28125 -0.84375 0  0.3125 -0.84375 0  0.34375 -0.84375 0  0.375 -0.84375 0  0.40625 -0.84375 0  0.4375 -0.84375 0  0.46875 -0.84375 0  0.5 -0.84375 0  0.53125 -0.84375 0  0.5625 -0.84375 0  0.59375 -0.84375 0  0.625 -0.84375 0  0.65625 -0.84375 0  0.6875 -0.84375 0  0.71875 -0.84375 0  0.75 -0.84375 0  0.78125 -0.84375 0  0.8125 -0.84375 0  0.84375 -0.84375 0  0.875 -0.84375 0  0.90625 -0.84375 0  0.9375 -0.84375 0  0.96875 -0.84375 0  1 -0.84375 0  -1 -0.8125 0  -0.96875 -0.8125 0  -0.9375 -0.8125 0  -0.90625 -0.8125 0  -0.875 -0.8125 0  -0.84375 -0.8125 0  -0.8125 -0.8125 0  -0.78125 -0.8125 0  -0.75 -0.8125 0  -0.71875 -0.8125 0  -0.6875 -0.8125 0  -0.65625 -0.8125 0  -0.625 -0.8125 0  -0.59375 -0.8125 0  -0.5625 -0.8125 0  -0.53125 -0.8125 0  -0.5 -0.8125 0  -0.46875 -0.8125 0  -0.4375 -0.8125 0  -0.40625 -0.8125 0  -0.375 -0.8125 0  -0.34375 -0.8125 0  -0.3125 -0.8125 0  -0.28125 -0.8125 0  -0.25 -0.8125 0  -0.21875 -0.8125 0  -0.1875 -0.8125 0  -0.15625 -0.8125 0  -0.125 -0.8125 0  -0.09375 -0.8125 0  -0.0625 -0.8125 0  -0.03125 -0.8125 0  0 -0.8125 0  0.03125 -0.8125 0  0.0625 -0.8125 0  0.09375 -0.8125 0  0.125 -0.8125 0  0.15625 -0.8125 0  0.1875 -0.8125 0  0.21875 -0.8125 0  0.25 -0.8125 0  0.28125 -0.8125 0  0.3125 -0.8125 0  0.34375 -0.8125 0  0.375 -0.8125 0  0.40625 -0.8125 0  0.4375 -0.8125 0  0.46875 -0.8125 0  0.5 -0.8125 0  0.53125 -0.8125 0  0.5625 -0.8125 0  0.59375 -0.8125 0  0.625 -0.8125 0  0.65625 -0.8125 0  0.6875 -0.8125 0  0.71875 -0.8125 0  0.75 -0.8125 0  0.78125 -0.8125 0  0.8125 -0.8125 0  0.84375 -0.8125 0  0.875 -0.8125 0  0.90625 -0.8125 0  0.9375 -0.8125 0  0.96875 -0.8125 0  1 -0.8125 0  -1 -0.78125 0  -0.96875 -0.78125 0  -0.9375 -0.78125 0  -0.90625 -0.78125 0  -0.875 -0.78125 0  -0.84375 -0.78125 0  -0.8125 -0.78125 0  -0.78125 -0.78125 0  -0.75 -0.78125 0  -0.71875 -0.78125 0  -0.6875 -0.78125 0  -0.65625 -0.78125 0  -0.625 -0.78125 0  -0.59375 -0.78125 0  -0.5625 -0.78125 0  -0.53125 -0.78125 0  -0.5 -0.78125 0  -0.46875 -0.78125 0  -0.4375 -0.78125 0  -0.40625 -0.78125 0  -0.375 -0.78125 0  -0.34375 -0.78125 0  -0.3125 -0.78125 0  -0.28125 -0.78125 0  -0.25 -0.78125 0  -0.21875 -0.78125 0  -0.1875 -0.78125 0  -0.15625 -0.78125 0  -0.125 -0.78125 0  -0.09375 -0.78125 0  -0.0625 -0.78125 0  -0.03125 -0.78125 0  0 -0.78125 0  0.03125 -0.78125 0  0.0625 -0.78125 0  0.09375 -0.78125 0  0.125 -0.78125 0  0.15625 -0.78125 0  0.1875 -0.78125 0  0.21875 -0.78125 0  0.25 -0.78125 0  0.28125 -0.78125 0  0.3125 -0.78125 0  0.34375 -0.78125 0  0.375 -0.78125 0  0.40625 -0.78125 0  0.4375 -0.78125 0  0.46875 -0.78125 0  0.5 -0.78125 0  0.53125 -0.78125 0  0.5625 -0.78125 0  0.59375 -0.78125 0  0.625 -0.78125 0  0.65625 -0.78125 0  0.6875 -0.78125 0  0.71875 -0.78125 0  0.75 -0.78125 0  0.78125 -0.78125 0  0.8125 -0.78125 0  0.84375 -0.78125 0  0.875 -0.78125 0  0.90625 -0.78125 0  0.9375 -0.78125 0  0.96875 -0.78125 0  1 -0.78125 0  -1 -0.75 0  -0.96875 -0.75 0  -0.9375 -0.75 0  -0.90625 -0.75 0  -0.875 -0.75 0  -0.84375 -0.75 0  -0.8125 -0.75 0  -0.78125 -0.75 0  -0.75 -0.75 0  -0.71875 -0.75 0  -0.6875 -0.75 0  -0.65625 -0.75 0  -0.625 -0.75 0  -0.59375 -0.75 0  -0.5625 -0.75 0  -0.53125 -0.75 0  -0.5 -0.75 0  -0.46875 -0.75 0  -0.4375 -0.75 0  -0.40625 -0.75
[...]
<PointData  Scalars="f_15"> 
<DataArray  type="Float64"  Name="f_15"  format="ascii">-4.3685086790977040e-01  -4.3265388444352459e-01  -4.2022422176569957e-01  -4.0003954484236881e-01  -3.7287553948799890e-01  -3.3977610319460849e-01  -3.0201322873657505e-01  -2.6103812220165645e-01  -2.1842543395488515e-01  -1.7581274570811400e-01  -1.3483763917319544e-01  -9.7074764715161924e-02  -6.3975328421771477e-02  -3.6811323067401563e-02  -1.6626646144070903e-02  -4.1969834662458298e-03  0.0000000000000000e+00  -4.1969834662458298e-03  -1.6626646144070927e-02  -3.6811323067401584e-02  -6.3975328421771532e-02  -9.7074764715161965e-02  -1.3483763917319552e-01  -1.7581274570811409e-01  -2.1842543395488520e-01  -2.6103812220165645e-01  -3.0201322873657493e-01  -3.3977610319460860e-01  -3.7287553948799890e-01  -4.0003954484236881e-01  -4.2022422176569957e-01  -4.3265388444352459e-01  -4.3685086790977040e-01  -4.3265388444352459e-01  -4.2022422176569957e-01  -4.0003954484236881e-01  -3.7287553948799890e-01  -3.3977610319460860e-01  -3.0201322873657493e-01  -2.6103812220165645e-01  -2.1842543395488520e-01  -1.7581274570811409e-01  -1.3483763917319552e-01  -9.7074764715161965e-02  -6.3975328421771532e-02  -3.6811323067401584e-02  -1.6626646144070927e-02  -4.1969834662458298e-03  0.0000000000000000e+00  -4.1969834662458298e-03  -1.6626646144070903e-02  -3.6811323067401563e-02  -6.3975328421771477e-02  -9.7074764715161924e-02  -1.3483763917319544e-01  -1.7581274570811400e-01  -2.1842543395488515e-01  -2.6103812220165645e-01  -3.0201322873657505e-01  -3.3977610319460849e-01  -3.7287553948799890e-01  -4.0003954484236881e-01  -4.2022422176569957e-01  -4.3265388444352459e-01  -4.3685086790977040e-01  -4.3265388444352459e-01  -3.5147903877872178e-01  -3.4332124861650010e-01  -3.2195791528494128e-01  -2.9182848038032605e-01  -2.5322131043662544e-01  -2.0761903635066117e-01  -1.5685556326896652e-01  -1.0292029462600678e-01  -4.7828011489888453e-02  6.4709218050455521e-03  5.8156033370959564e-02  1.0558543703753751e-01  1.4733259155398215e-01  1.8221425951986933e-01  2.0931154764886073e-01  2.2798507669639512e-01  2.3788477854312226e-01  2.3895454599910926e-01  2.3143169010008052e-01  2.1584092020204665e-01  1.9298200573195387e-01  1.6390939282318256e-01  1.2990048832444062e-01  9.2407405700203227e-02  5.2985520007464017e-02  1.3193544705257146e-02  -2.5533136183263621e-02  -6.2020390754852876e-02  -9.5473108550663752e-02  -1.2553429750767245e-01  -1.5225893530054502e-01  -1.7600615981100837e-01  -1.9728571241443588e-01  -2.1660960121119274e-01  -2.3438952789745759e-01  -2.5089433877527750e-01  -2.6625624332841680e-01  -2.8050215023106628e-01  -2.9358806601121223e-01  -3.0542449075019251e-01  -3.1589115969460951e-01  -3.2484618917341318e-01  -3.3213612945337961e-01  -3.3761149126134388e-01  -3.4114855839196950e-01  -3.4267493857301173e-01  -3.4219384230610439e-01  -3.3980139721452191e-01  -3.3569184688677961e-01  -3.3014772136690279e-01  -3.2351488671498940e-01  -3.1616791903974800e-01  -3.0847470819118616e-01  -3.0078599964690689e-01  -2.9345966873490170e-01  -2.8699663038990331e-01  -2.8213217942273661e-01  -2.8021284409052916e-01  -2.8249540753362984e-01  -2.9160326830296845e-01  -3.0508219958723437e-01  -3.3269947337737299e-01  -3.3744510788791943e-01  -4.3265388444352459e-01  -4.2022422176569957e-01  -3.2944169499716197e-01  -3.4964428092123234e-01  -3.3570243499550972e-01  -3.1367159278478368e-01  -2.8283886594056779e-01  -2.4507740147052592e-01  -2.0225058783398395e-01  -1.5632727567671684e-01  -1.0926927818458747e-01  -6.2950971187016147e-02  -1.9099894952383373e-02  2.0746802602950799e-02  5.5275850552834661e-02  8.3424785640629107e-02  1.0440367710452886e-01  1.1771153643231111e-01  1.2314672075936810e-01  1.2081053874297827e-01  1.1110353657428279e-01  9.4714004669441937e-02  7.2597951226482479e-02  4.5948483668107901e-02  1.6150319956375305e-02  -1.5287414845307021e-02  -4.6827323535700849e-02  -7.7030629365316836e-02  -1.0470303547263059e-01  -1.2902946673013094e-01  -1.4965596795822833e-01  -1.6668467219612482e-01  -1.8057668622466425e-01  -1.9199301777324521e-01  -2.0162433929322909e-01  -2.1005598214924653e-01  -2.1769272012974686e-01  -2.2474350791175779e-01  -2.3125046031606186e-01  -2.3714097595048725e-01  -2.4228468929381994e-01  -2.4654325388169093e-01  -2.4980763399145167e-01  -2.5202200350882742e-01  -2.5319561799796647e-01  -2.5340446101164876e-01  -2.5278461488203496e-01  -2.5151937433275756e-01  -2.4982267365265201e-01  -2.4792166273926716e-01  -2.4604133309830389e-01  -2.4439357123443686e-01  -2.4317209709005369e-01  -2.4255569286280534e-01  -2.4271977447758045e-01  -2.4386974088375735e-01  -2.4627915731838707e-01  -2.5040600810894192e-01  -2.5687221072866717e-01  -2.6680147565332651e-01  -2.8078770741230330e-01  -3.0074113636520899e-01  -3.2180917493305849e-01  -3.5242789285528625e-01  -3.4686490277693688e-01  -4.2022422176569957e-01  -4.0003954484236881e-01  -3.0555033762866557e-01  -3.2367126803313395e-01  -3.0892252677674370e-01  -2.8878187959739221e-01  -2.5959068753573239e-01  -2.2332492502111528e-01  -1.8160553402982432e-01  -1.3628896446775160e-01  -8.9299646574323641e-02  -4.2533611637354807e-02  2.2239700102639811e-03  4.3361766582978939e-02  7.9488788196439134e-02  1.0946819730456014e-01  1.3244172883935981e-01  1.4784692278134490e-01  1.5542832194695985e-01  1.5524298664888017e-01  1.4765992152670351e-01  1.3335196722402645e-01  1.1327702669943553e-01  8.8643220546154561e-02  6.0850569065276493e-02  3.1402218366675491e-02  1.7839123139655900e-03  -2.6677377072189912e-02  -5.2949491543087882e-02  -7.6390322667190966e-02  -9.6772642851988680e-02  -1.1423096078078698e-01  -1.2914996354742131e-01  -1.4203108438045203e-01  -1.5337305853599192e-01  -1.6358874988507788e-01  -1.7296418111898085e-01  -1.8165382235688701e-01  -1.8970055580569697e-01  -1.9706805275283279e-01  -2.0367559078129005e-01  -2.0942890834201894e-01  -2.1424412891867792e-01  -2.1806433790945828e-01  -2.2086976241989981e-01  -2.2268299391074570e-01  -2.2357061842184259e-01  -2.2364237225086189e-01  -2.2304861061916839e-01  -2.2197666980018138e-01  -2.2064649146935350e-01  -2.1930615481570018e-01  -2.1822790224588776e-01  -2.1770787567980099e-01  -2.1806940732738569e-01  -2.1968626976247829e-01  -2.2299758960148150e-01  -2.2860827824834054e-01  -2.3717512930061954e-01  -2.4976588431187005e-01  -2.6637862581655120e-01  -2.8849727753327592e-01  -3.0875790267424041e-01  -3.3733683484977073e-01  -3.2056809979786727e-01  -4.0003954484236881e-01  -3.7287553948799890e-01  -2.8848492168841822e-01  -3.0132369644182505e-01  -2.8755485289038468e-01  -2.6868072719389413e-01  -2.4186764444374098e-01  -2.0888114426201543e-01  -1.7098012531040807e-01  -1.2975739790559401e-01  -8.6910264702911091e-02  -4.4154758545415049e-02  -3.1358356169991679e-03  3.4646266931874531e-02  6.7893132668069053e-02  9.5550134622996399e-02  1.1683591681285690e-01  1.3126184906208610e-01  1.3864294835543492e-01  1.3910059818520570e-01  1.3305602842106232e-01  1.2121210908332618e-01  1.0451953680529938e-01  8.4122802968067428e-02  6.1282538204062258e-02  3.7275493976755843e-02  1.3281552924111583e-02  -9.7237033418952398e-03  -3.1047517861407227e-02  -5.0310462605592972e-02  -6.7423225065305889e-02  -8.2520370660511294e-02  -9.5872754183705500e-02  -1.0780143967710071e-01  -1.1860927793535095e-01  -1.2853710269051583e-01  -1.3774401138236350e-01  -1.4630700672372182e-01  -1.5423371545028411e-01  -1.6148214394631363e-01  -1.6798249769330076e-01  -1.7365763988814506e-01  -1.7844022960234859e-01  -1.8228584143824708e-01  -1.8518212181659413e-01  -1.8715448043562646e-01  -1.8826889898221039e-01  -1.8863249704746637e-01  -1.8839244239444217e-01  -1.8773385550365843e-01  -1.8687731514032629e-01  -1.8607692422707831e-01  -1.8561953421100882e-01  -1.8582843040103522e-01  -1.8706914615617484e-01  -1.8977558022369354e-01  -1.9445339791603500e-01  -2.0178078536199015e-01  -2.1239745623995310e-01  -2.2731886934756032e-01  -2.4593059875058476e-01  -2.6954067355485817e-01  -2.8842399667678265e-01  -3.1595526361704207e-01  -2.9108365167536576e-01  -3.7287553948799890e-01  -3.3977610319460849e-01  -2.7858072463686495e-01  -2.8200272464442450e-01  -2.6607073913864621e-01  -2.4576966444460768e-01  -2.1917664656418398e-01  -1.8741386772031915e-01  -1.5145767281621780e-01  -1.1260800762413119e-01  -7.2295054539568984e-02  -3.2014967899875832e-02  6.7565890718422530e-03  4.2641504455835415e-02  7.4424930685521501e-02  1.0110732126182917e-01  1.2194283844842407e-01  1.3646508954246425e-01  1.4450109580780265e-01  1.4617351126136863e-01  1.4188996464085846e-01  1.3231722397693030e-01  1.1833749656628660e-01  1.0098517587383890e-01  8.1365607989763250e-02  6.0562685258667724e-02  3.9547829135393522e-02  1.9106145979956708e-02  -2.0639317232218953e-04  -1.8068339326707230e-02  -3.4364274636266991e-02  -4.9133936362558930e-02  -6.2513335846273721e-02  -7.4680076580540711e-02  -8.5810368723726660e-02  -9.6050444502695689e-02  -1.0550180481577766e-01  -1.1421789283799674e-01  -1.2220918087091948e-01  -1.2945354734240794e-01  -1.3590922013568674e-01  -1.4152806790574177e-01  -1.4626778692648473e-01  -1.5010213322860624e-01  -1.5302895786770956e-01  -1.5507608195646058e-01  -1.5630531887590579e-01  -1.5681496038642009e-01  -1.5674114084946503e-01  -1.5625845689806450e-01  -1.5558028929197396e-01  -1.5495960806200312e-01  -1.5469067180995225e-01  -1.5511515439230869e-01  -1.5662873975037606e-01  -1.5970988465255340e-01  -1.6491130305538243e-01  -1.7296761147343370e-01  -1.8447475528711255e-01  -2.0040080442345087e-01  -2.1947847537816453e-01  -2.4309569521123361e-01  -2.5916884778101862e-01  -2.8549023938631879e-01  -2.5181797836813785e-01  -3.3977610319460849e-01  -3.0201322873657505e-01  -2.7507689523274337e-01  -2.6755478346582540e-01  -2.4901815639635014e-01  -2.2678420315812717e-01  -1.9972301588702690e-01  -1.6861935516961377e-01  -1.3426930589207928e-01  -9.7711818534616413e-02  -6.0121204750233657e-02  -2.2749558545461190e-02  1.3147987278537011e-02  4.6383243425087768e-02  7.5898697495277667e-02  1.0082079342484691e-01  1.2050066608954088e-01  1.3454145382291169e-01  1.4281177289042304e-01  1.4544487707352158e-01  1.4282266212793912e-01  1.3554368333442948e-01  1.2437512309594605e-01  1.1019067111778556e-01  9.3899287961888567e-02  7.6373025516967064e-02  5.8383908114252578e-02  4.0559057937934996e-02  2.3359487811968387e-02  7.0825658995889327e-03  -8.1167447976164247e-03  -2.2193474536647974e-02  -3.5176692662769210e-02  -4.7135937750434689e-02  -5.8153600982818743e-02  -6.8304873157407214e-02  -7.7645406679542769e-02  -8.6206009412488765e-02  -9.3993083736687230e-02  -1.0099330049465820e-01  -1.0718087786209567e-01  -1.1252606282493759e-01  -1.1700365071855533e-01  -1.2060082476612601e-01  -1.2332387586991995e-01  -1.2520371147773948e-01  -1.2630016925589438e-01  -1.2670534388105315e-01  -1.2654611890798334e-01  -1.2598626981964645e-01  -1.2522844967246302e-01  -1.2451693668580181e-01  -1.2414133491088868e-01  -1.2444524356751602e-01  -1.2583401592327126e-01  -1.2880760794780138e-01  -1.3393993774010041e-01  -1.4199924926429172e-01  -1.5350755941312508e-01  -1.6940106438805277e-01  -1.8775657893748521e-01  -2.1035408774451586e-01  -2.2275732828126699e-01  -2.4813459026114842e-01  -2.0576805110764138e-01  -3.0201322873657505e-01  -2.6103812220165645e-01  -2.7636796511517087e-01  -2.5751289396588423e-01  -2.3636704600172984e-01  -2.1190685182698621e-01  -1.8392312505630407e-01  -1.5293753528560958e-01  -1.1958217885920053e-01  -8.4692408565865254e-02  -4.9229782094571600e-02  -1.4228731115570700e-02  1.9263672293082085e-02  5.0247228694138044e-02  7.7825042334078470e-02  1.0125262528664862e-01  1.1997674861399460e-01  1.3366187144086228e-01  1.4220272800108330e-01  1.4572219411929885e-01  1.4455408885057486e-01  1.3921140045673530e-01  1.3034174074708646e-01  1.1867364264761608e-01  1.0495914998895735e-01  8.9919372251380025e-02  7.4199529405782977e-02  5.8338313973225940e-02  4.2753525149441758e-02  2.7742888893920400e-02  1.3496676519964300e-02  1.1770649884071133e-04  -1.2355570968177996e-02  -2.3926373032988245e-02  -3.4619679614478344e-02  -4.4466545447194278e-02  -5.3493229434806944e-02  -6.1715099399313980e-02  -6.9134784056649759e-02  -7.5743723030322757e-02  -8.1526119929650490e-02  -8.6464315245235096e-02  -9.0544743980844153e-02  -9.3763854493409265e-02  -9.6133595274230044e-02  -9.7686276195374261e-02  -9.8478768892766855e-02  -9.8596115417901323e-02  -9.8154710566314390e-02  -9.7305322046905951e-02  -9.6236278369442041e-02  -9.5177679572706814e-02  -9.4406740917153814e-02  -9.4258658590665026e-02  -9.5135304111699570e-02  -9.7542381059069261e-02  -1.0205585539088309e-01  -1.0946033780044484e-01  -1.2018255154105729e-01  -1.3515642105327405e-01  -1.5182608907303996e-01  -1.7266550037432668e-01  -1.8084731976668397e-01  -2.0566871911389223e-01  -1.5454955821619790e-01  -2.6103812220165645e-01  -2.1842543395488515e-01  -2.8079422051501435e-01  -2.5088169466863580e-01  -2.2761616173181615e-01  -2.0116409120480458e-01  -1.7231540466899906e-01  -1.4134983069096776e-01  -1.0878940110644997e-01  -7.5317603759574331e-02  -4.1724859126710805e-02  -8.8625681060253755e-03  2.2406796062816502e-02  5.1259483795414666e-02  7.6957634255257049e-02  9.8890718012547368e-02  1.1660848247813542e-01  1.2984308886712295e-01  1.3851887635691065e-01  1.4274895793429607e-01  1.4281882983924965e-01  1.3915822163004932e-01  1.3230369935190398e-01  1.2285566922712829e-01  1.1143432195748067e-01  9.8639169454054418e-02  8.5016182243850519e-02  7.1035083166412785e-02  5.7077608081399715e-02  4.3435882981359732e-02  3.0318911770749562e-02  1.7864618028994316e-02  6.1548478350394731e-03  -4.7689245666968066e-03  -1.4890983667874535e-02  -2.4209077897986493e-02  -3.2725176685288591e-02  -4.0439493778391962e-02  -4.7347636598386131e-02  -5.3440410236200692e-02  -5.8705681822378182e-02  -6.3131626232984864e-02  -6.6710774688846647e-02  -6.9444360687143006e-02  -7.1346652092214385e-02  -7.2449047618516019e-02  -7.2803889670607191e-02  -7.2488003581093030e-02  -7.1606102473915093e-02  -7.0294293218284634e-02  -6.8724012117838754e-02  -6.7107275169207545e-02  -6.5703255594667526e-02  -6.4830975956961800e-02  -6.4878605047521853e-02  -6.6344856223243334e-02  -6.9792281686748531e-02  -7.6008639168990866e-02  -8.5314466280876494e-02  -9.8681584449915913e-02  -1.1296825256194998e-01  -1.3160449276589731e-01  -1.3532040428458125e-01  -1.6005327579080819e-01  -1.0021627149221117e-01  -2.1842543395488515e-01  -1.7581274570811400e-01  -2.8709958772912736e-01  -2.4671033780953003e-01  -2.2194343251596685e-01  -1.9382806392926991e-01  -1.6427491949711498e-01  -1.3333740959001864e-01  -1.0145874969232430e-01  -6.9198314552291265e-02  -3.7207104271894144e-02  -6.1848342116780902e-03  2.3162324329163785e-02  5.0162858811363821e-02  7.4218325628382473e-02  9.4836844500037626e-02  1.1165947422410635e-01  1.2447760626352362e-01  1.3324007362330015e-01  1.3804947785302096e-01  1.3914811016782822e-01  1.3689485992730160e-01  1.3173539290577985e-01  1.2416864511787923e-01  1.1471298806424686e-01  1.0387531947493478e-01  9.2125678695706925e-02  7.9879038013247916e-02  6.7484805961902386e-02  5.5223594515342637e-02  4.3310060003672525e-02  3.1900208799178945e-02  2.1101443156853111e-02  1.0983714589702402e-02  1.5904230577642807e-03  -7.0519808481563796e-03  -1.4926340781132351e-02  -2.2019411397727087e-02  -2.8318737215984900e-02  -3.3811581277794198e-02  -3.8485516661376631e-02  -4.2330266024590044e-02  -4.5340353105127573e-02  -4.7518229051921913e-02  -4.8877585526898859e-02  -4.9446709733512402e-02  -4.9271787373754983e-02  -4.8420192520111628e-02  -4.6983856058435150e-02  -4.5082980202631552e-02  -4.2870397981079209e-02  -4.0537526368925783e-02  -3.8321809108689847e-02  -3.6520802104899448e-02  -3.5501772325879505e-02  -3.5746945847650764e-02  -3.7794490209595397e-02  -4.2426671201432516e-02  -4.9858543435053589e-02  -6.1143776900039096e-02  -7.2619126208567614e-02  -8.8864867970614422e-02  -8.8122514245013300e-02  -1.1324332710872938e-01  -4.4780345261819392e-02  -1.7581274570811400e-01  -1.3483763917319544e-01  -2.9449117544002007e-01  -2.4429861584069879e-01  -2.1861417048558518e-01  -1.8915812563758558e-01  -1.5908589448182320e-01  -1.2822900798141887e-01  -9.6977614057014300e-02  -6.5790070280418986e-02  -3.5203065940382340e-02  -5.7898653050598428e-03  2.1874775547825624e-02  4.7248484574152420e-02  6.9852218180964890e-02  8.9296711106621671e-02  1.0530286177094345e-01  1.1771472407148502e-01  1.2650425473815866e-01  1.3176757946025630e-01  1.3371328363950735e-01  1.3264395292043604e-01  1.2893284055662610e-01  1.2299795713430861e-01  1.1527603565416270e-01  1.0619863449777174e-01  9.6172194383254042e-02  8.5563203271313157e-02  7.4688920052682253e-02  6.3813444995623844e-02  5.3148418017968838e-02  4.2857295486942414e-02  3.3062013294555763e-02  2.3850863760058794e-02  1.5286545739198635e-02  7.4135683612101830e-03  2.6443322258969300e-04  -6.1357166976192222e-03  -1.1766076733332836e-02  -1.6608693577675037e-02  -2.0648306281396786e-02  -2.3873233333615559e-02  -2.6277031349875041e-02  -2.7860660309685717e-02  -2.8634968098956791e-02  -2.8623350520901956e-02  -2.7864542867315399e-02  -2.6415558066261922e-02  -2.4354893462712492e-02  -2.1786252985743798e-02  -1.8843118202753185e-02  -1.5695107591122748e-02  -1.2556002261967071e-02  -9.6987735657779080e-03  -7.4653252656179643e-03  -6.3149526697722719e-03  -6.7550691491697719e-03  -9.5577666947373255e-03  -1.4843885837048086e-02  -2.3787955793907776e-02  -3.2281030356463070e-02  -4.6160512412483361e-02  -4.1166885590497665e-02  -6.7111129577265199e-02  9.8112229608681746e-03  -1.3483763917319544e-01  -9.7074764715161924e-02  -3.0248965631696045e-01  -2.4318038677498616e-01  -2.1704649430591108e-01  -1.8650609696327347e-01  -1.5605756914820959e-01  -1.2531326353879849e-01  -9.4632801513352044e-02  -6.4390580015473348e-02  -3.5027714341773639e-02  -7.0108800386907899e-03  1.9195993180878702e-02  4.3159420555562454e-02  6.4500996460307283e-02  8.2917996692245588e-02  9.8198857156252789e-02  1.1023265829940955e-01  1.1901210530399325e-01  1.2462997027885980e-01  1.2726949624247788e-01  1.2718977385342473e-01  1.2470753327481723e-01  1.2017705706484012e-01  1.1396998811562575e-01  1.0645666487470959e-01  9.7990289423643698e-02  8.8894797162780148e-02  7.9456803726923125e-02  6.9921557763081982e-02  6.0492446070176419e-02  5.1333351230061816e-02  4.2573021291928304e-02  3.4310602545787890e-02  2.6621550602582731e-02  1.9563281983418643e-02  1.3180090876400763e-02  7.5070443414043527e-03  2.5727266711896607e-03  -1.5991518501731251e-03  -4.9891746130426339e-03  -7.5824986270479093e-03  -9.3698089176035976e-03  -1.0348772778589442e-02  -1.0525850806398148e-02  -9.9183736794345775e-03  -8.5568504450461193e-03  -6.4875483398829240e-03  -3.7754663538591949e-03  -5.0796714291967480e-04  3.2005963049293331e-03  7.2023113692578460e-03  1.1307329229874813e-02  1.5268274271580291e-02  1.8770371532183715e-02  2.1380604894226607e-02  2.2624120828675671e-02  2.1740697833834685e-02  1.8684328997257853e-02  1.2134106064519576e-02  6.5624568182637896e-03  -5.1359376166795721e-03  3.7491907331722004e-03  -2.3384328814878501e-02  6.1745854584225032e-02  -9.7074764715161924e-02  -6.3975328421771477e-02  -3.1074644797801798e-01  -2.4304313951033391e-01  -2.1678388191308892e-01  -1.8534228531066610e-01  -1.5461298751781274e-01  -1.2398956671253483e-01  -9.3818683464437003e-02  -6.4403989631345138e-02  -3.6106153876521489e-02  -9.3012829511883843e-03  1.5640790147504208e-02  3.8378819788678728e-02  5.8619472992113862e-02  7.6133190059868641e-02  9.0765776550903718e-02  1.0244517669680557e-01  1.1118315277461073e-01  1.1707195883433723e-01  1.2027646032693952e-01  1.2102252282913076e-01  1.1958275660628127e-01  1.1626088651790942e-01  1.1137603532742338e-01  1.0524810546917188e-01  9.8185215382193117e-02  9.04