<?xml version="1.0"?>
<VTKFile type="UnstructuredGrid"  version="0.1"  >
<UnstructuredGrid>
<Piece  NumberOfPoints="4225" NumberOfCells="8192">
<Points>
<DataArray  type="Float64"  NumberOfComponents="3"  format="ascii">-1 -1 0  -0.96875 -1 0  -0.9375 -1 0  -0.90625 -1 0  -0.875 -1 0  -0.84375 -1 0  -0.8125 -1 0  -0.78125 -1 0  -0.75 -1 0  -0.71875 -1 0  -0.6875 -1 0  -0.65625 -1 0  -0.625 -1 0  -0.59375 -1 0  -0.5625 -1 0  -0.53125 -1 0  -0.5 -1 0  -0.46875 -1 0  -0.4375 -1 0  -0.40625 -1 0  -0.375 -1 0  -0.34375 -1 0  -0.3125 -1 0  -0.28125 -1 0  -0.25 -1 0  -0.21875 -1 0  -0.1875 -1 0  -0.15625 -1 0  -0.125 -1 0  -0.09375 -1 0  -0.0625 -1 0  -0.03125 -1 0  0 -1 0  0.03125 -1 0  0.0625 -1 0  0.09375 -1 0  0.125 -1 0  0.15625 -1 0  0.1875 -1 0  0.21875 -1 0  0.25 -1 0  0.28125 -1 0  0.3125 -1 0  0.34375 -1 0  0.375 -1 0  0.40625 -1 0  0.4375 -1 0  0.46875 -1 0  0.5 -1 0  0.53125 -1 0  0.5625 -1 0  0.59375 -1 0  0.625 -1 0  0.65625 -1 0  0.6875 -1 0  0.71875 -1 0  0.75 -1 0  0.78125 -1 0  0.8125 -1 0  0.84375 -1 0  0.875 -1 0  0.90625 -1 0  0.9375 -1 0  0.96875 -1 0  1 -1 0  -1 -0.96875 0  -0.96875 -0.96875 0  -0.9375 -0.96875 0  -0.90625 -0.96875 0  -0.875 -0.96875 0  -0.84375 -0.96875 0  -0.8125 -0.96875 0  -0.78125 -0.96875 0  -0.75 -0.96875 0  -0.71875 -0.96875 0  -0.6875 -0.96875 0  -0.65625 -0.96875 0  -0.625 -0.96875 0  -0.59375 -0.96875 0  -0.5625 -0.96875 0  -0.53125 -0.96875 0  -0.5 -0.96875 0  -0.46875 -0.96875 0  -0.4375 -0.96875 0  -0.40625 -0.96875 0  -0.375 -0.96875 0  -0.34375 -0.96875 0  -0.3125 -0.96875 0  -0.28125 -0.96875 0  -0.25 -0.96875 0  -0.21875 -0.96875 0  -0.1875 -0.96875 0  -0.15625 -0.96875 0  -0.125 -0.96875 0  -0.09375 -0.96875 0  -0.0625 -0.96875 0  -0.03125 -0.96875 0  0 -0.96875 0  0.03125 -0.96875 0  0.0625 -0.96875 0  0.09375 -0.96875 0  0.125 -0.96875 0  0.15625 -0.96875 0  0.1875 -0.96875 0  0.21875 -0.96875 0  0.25 -0.96875 0  0.28125 -0.96875 0  0.3125 -0.96875 0  0.34375 -0.96875 0  0.375 -0.96875 0  0.40625 -0.96875 0  0.4375 -0.96875 0  0.46875 -0.96875 0  0.5 -0.96875 0  0.53125 -0.96875 0  0.5625 -0.96875 0  0.59375 -0.96875 0  0.625 -0.96875 0  0.65625 -0.96875 0  0.6875 -0.96875 0  0.71875 -0.96875 0  0.75 -0.96875 0  0.78125 -0.96875 0  0.8125 -0.96875 0  0.84375 -0.96875 0  0.875 -0.96875 0  0.90625 -0.96875 0  0.9375 -0.96875 0  0.96875 -0.96875 0  1 -0.96875 0  -1 -0.9375 0  -0.96875 -0.9375 0  -0.9375 -0.9375 0  -0.90625 -0.9375 0  -0.875 -0.9375 0  -0.84375 -0.9375 0  -0.8125 -0.9375 0  -0.78125 -0.9375 0  -0.75 -0.9375 0  -0.71875 -0.9375 0  -0.6875 -0.9375 0  -0.65625 -0.9375 0  -0.625 -0.9375 0  -0.59375 -0.9375 0  -0.5625 -0.9375 0  -0.53125 -0.9375 0  -0.5 -0.9375 0  -0.46875 -0.9375 0  -0.4375 -0.9375 0  -0.40625 -0.9375 0  -0.375 -0.9375 0  -0.34375 -0.9375 0  -0.3125 -0.9375 0  -0.28125 -0.9375 0  -0.25 -0.9375 0  -0.21875 -0.9375 0  -0.1875 -0.9375 0  -0.15625 -0.9375 0  -0.125 -0.9375 0  -0.09375 -0.9375 0  -0.0625 -0.9375 0  -0.03125 -0.9375 0  0 -0.9375 0  0.03125 -0.9375 0  0.0625 -0.9375 0  0.09375 -0.9375 0  0.125 -0.9375 0  0.15625 -0.9375 0  0.1875 -0.9375 0  0.21875 -0.9375 0  0.25 -0.9375 0  0.28125 -0.9375 0  0.3125 -0.9375 0  0.34375 -0.9375 0  0.375 -0.9375 0  0.40625 -0.9375 0  0.4375 -0.9375 0  0.46875 -0.9375 0  0.5 -0.9375 0  0.53125 -0.9375 0  0.5625 -0.9375 0  0.59375 -0.9375 0  0.625 -0.9375 0  0.65625 -0.9375 0  0.6875 -0.9375 0  0.71875 -0.9375 0  0.75 -0.9375 0  0.78125 -0.9375 0  0.8125 -0.9375 0  0.84375 -0.9375 0  0.875 -0.9375 0  0.90625 -0.9375 0  0.9375 -0.9375 0  0.96875 -0.9375 0  1 -0.9375 0  -1 -0.90625 0  -0.96875 -0.90625 0  -0.9375 -0.90625 0  -0.90625 -0.90625 0  -0.875 -0.90625 0  -0.84375 -0.90625 0  -0.8125 -0.90625 0  -0.78125 -0.90625 0  -0.75 -0.90625 0  -0.71875 -0.90625 0  -0.6875 -0.90625 0  -0.65625 -0.90625 0  -0.625 -0.90625 0  -0.59375 -0.90625 0  -0.5625 -0.90625 0  -0.53125 -0.90625 0  -0.5 -0.90625 0  -0.46875 -0.90625 0  -0.4375 -0.90625 0  -0.40625 -0.90625 0  -0.375 -0.90625 0  -0.34375 -0.90625 0  -0.3125 -0.90625 0  -0.28125 -0.90625 0  -0.25 -0.90625 0  -0.21875 -0.90625 0  -0.1875 -0.90625 0  -0.15625 -0.90625 0  -0.125 -0.90625 0  -0.09375 -0.90625 0  -0.0625 -0.90625 0  -0.03125 -0.90625 0  0 -0.90625 0  0.03125 -0.90625 0  0.0625 -0.90625 0  0.09375 -0.90625 0  0.125 -0.90625 0  0.15625 -0.90625 0  0.1875 -0.90625 0  0.21875 -0.90625 0  0.25 -0.90625 0  0.28125 -0.90625 0  0.3125 -0.90625 0  0.34375 -0.90625 0  0.375 -0.90625 0  0.40625 -0.90625 0  0.4375 -0.90625 0  0.46875 -0.90625 0  0.5 -0.90625 0  0.53125 -0.90625 0  0.5625 -0.90625 0  0.59375 -0.90625 0  0.625 -0.90625 0  0.65625 -0.90625 0  0.6875 -0.90625 0  0.71875 -0.90625 0  0.75 -0.90625 0  0.78125 -0.90625 0  0.8125 -0.90625 0  0.84375 -0.90625 0  0.875 -0.90625 0  0.90625 -0.90625 0  0.9375 -0.90625 0  0.96875 -0.90625 0  1 -0.90625 0  -1 -0.875 0  -0.96875 -0.875 0  -0.9375 -0.875 0  -0.90625 -0.875 0  -0.875 -0.875 0  -0.84375 -0.875 0  -0.8125 -0.875 0  -0.78125 -0.875 0  -0.75 -0.875 0  -0.71875 -0.875 0  -0.6875 -0.875 0  -0.65625 -0.875 0  -0.625 -0.875 0  -0.59375 -0.875 0  -0.5625 -0.875 0  -0.53125 -0.875 0  -0.5 -0.875 0  -0.46875 -0.875 0  -0.4375 -0.875 0  -0.40625 -0.875 0  -0.375 -0.875 0  -0.34375 -0.875 0  -0.3125 -0.875 0  -0.28125 -0.875 0  -0.25 -0.875 0  -0.21875 -0.875 0  -0.1875 -0.875 0  -0.15625 -0.875 0  -0.125 -0.875 0  -0.09375 -0.875 0  -0.0625 -0.875 0  -0.03125 -0.875 0  0 -0.875 0  0.03125 -0.875 0  0.0625 -0.875 0  0.09375 -0.875 0  0.125 -0.875 0  0.15625 -0.875 0  0.1875 -0.875 0  0.21875 -0.875 0  0.25 -0.875 0  0.28125 -0.875 0  0.3125 -0.875 0  0.34375 -0.875 0  0.375 -0.875 0  0.40625 -0.875 0  0.4375 -0.875 0  0.46875 -0.875 0  0.5 -0.875 0  0.53125 -0.875 0  0.5625 -0.875 0  0.59375 -0.875 0  0.625 -0.875 0  0.65625 -0.875 0  0.6875 -0.875 0  0.71875 -0.875 0  0.75 -0.875 0  0.78125 -0.875 0  0.8125 -0.875 0  0.84375 -0.875 0  0.875 -0.875 0  0.90625 -0.875 0  0.9375 -0.875 0  0.96875 -0.875 0  1 -0.875 0  -1 -0.84375 0  -0.96875 -0.84375 0  -0.9375 -0.84375 0  -0.90625 -0.84375 0  -0.875 -0.84375 0  -0.84375 -0.84375 0  -0.8125 -0.84375 0  -0.78125 -0.84375 0  -0.75 -0.84375 0  -0.71875 -0.84375 0  -0.6875 -0.84375 0  -0.65625 -0.84375 0  -0.625 -0.84375 0  -0.59375 -0.84375 0  -0.5625 -0.84375 0  -0.53125 -0.84375 0  -0.5 -0.84375 0  -0.46875 -0.84375 0  -0.4375 -0.84375 0  -0.40625 -0.84375 0  -0.375 -0.84375 0  -0.34375 -0.84375 0  -0.3125 -0.84375 0  -0.28125 -0.84375 0  -0.25 -0.84375 0  -0.21875 -0.84375 0  -0.1875 -0.84375 0  -0.15625 -0.84375 0  -0.125 -0.84375 0  -0.09375 -0.84375 0  -0.0625 -0.84375 0  -0.03125 -0.84375 0  0 -0.84375 0  0.03125 -0.84375 0  0.0625 -0.84375 0  0.09375 -0.84375 0  0.125 -0.84375 0  0.15625 -0.84375 0  0.1875 -0.84375 0  0.21875 -0.84375 0  0.25 -0.84375 0  0.28125 -0.84375 0  0.3125 -0.84375 0  0.34375 -0.84375 0  0.375 -0.84375 0  0.40625 -0.84375 0  0.4375 -0.84375 0  0.46875 -0.84375 0  0.5 -0.84375 0  0.53125 -0.84375 0  0.5625 -0.84375 0  0.59375 -0.84375 0  0.625 -0.84375 0  0.65625 -0.84375 0  0.6875 -0.84375 0  0.71875 -0.84375 0  0.75 -0.84375 0  0.78125 -0.84375 0  0.8125 -0.84375 0  0.84375 -0.84375 0  0.875 -0.84375 0  0.90625 -0.84375 0  0.9375 -0.84375 0  0.96875 -0.84375 0  1 -0.84375 0  -1 -0.8125 0  -0.96875 -0.8125 0  -0.9375 -0.8125 0  -0.90625 -0.8125 0  -0.875 -0.8125 0  -0.84375 -0.8125 0  -0.8125 -0.8125 0  -0.78125 -0.8125 0  -0.75 -0.8125 0  -0.71875 -0.8125 0  -0.6875 -0.8125 0  -0.65625 -0.8125 0  -0.625 -0.8125 0  -0.59375 -0.8125 0  -0.5625 -0.8125 0  -0.53125 -0.8125 0  -0.5 -0.8125 0  -0.46875 -0.8125 0  -0.4375 -0.8125 0  -0.40625 -0.8125 0  -0.375 -0.8125 0  -0.34375 -0.8125 0  -0.3125 -0.8125 0  -0.28125 -0.8125 0  -0.25 -0.8125 0  -0.21875 -0.8125 0  -0.1875 -0.8125 0  -0.15625 -0.8125 0  -0.125 -0.8125 0  -0.09375 -0.8125 0  -0.0625 -0.8125 0  -0.03125 -0.8125 0  0 -0.8125 0  0.03125 -0.8125 0  0.0625 -0.8125 0  0.09375 -0.8125 0  0.125 -0.8125 0  0.15625 -0.8125 0  0.1875 -0.8125 0  0.21875 -0.8125 0  0.25 -0.8125 0  0.28125 -0.8125 0  0.3125 -0.8125 0  0.34375 -0.8125 0  0.375 -0.8125 0  0.40625 -0.8125 0  0.4375 -0.8125 0  0.46875 -0.8125 0  0.5 -0.8125 0  0.53125 -0.8125 0  0.5625 -0.8125 0  0.59375 -0.8125 0  0.625 -0.8125 0  0.65625 -0.8125 0  0.6875 -0.8125 0  0.71875 -0.8125 0  0.75 -0.8125 0  0.78125 -0.8125 0  0.8125 -0.8125 0  0.84375 -0.8125 0  0.875 -0.8125 0  0.90625 -0.8125 0  0.9375 -0.8125 0  0.96875 -0.8125 0  1 -0.8125 0  -1 -0.78125 0  -0.96875 -0.78125 0  -0.9375 -0.78125 0  -0.90625 -0.78125 0  -0.875 -0.78125 0  -0.84375 -0.78125 0  -0.8125 -0.78125 0  -0.78125 -0.78125 0  -0.75 -0.78125 0  -0.71875 -0.78125 0  -0.6875 -0.78125 0  -0.65625 -0.78125 0  -0.625 -0.78125 0  -0.59375 -0.78125 0  -0.5625 -0.78125 0  -0.53125 -0.78125 0  -0.5 -0.78125 0  -0.46875 -0.78125 0  -0.4375 -0.78125 0  -0.40625 -0.78125 0  -0.375 -0.78125 0  -0.34375 -0.78125 0  -0.3125 -0.78125 0  -0.28125 -0.78125 0  -0.25 -0.78125 0  -0.21875 -0.78125 0  -0.1875 -0.78125 0  -0.15625 -0.78125 0  -0.125 -0.78125 0  -0.09375 -0.78125 0  -0.0625 -0.78125 0  -0.03125 -0.78125 0  0 -0.78125 0  0.03125 -0.78125 0  0.0625 -0.78125 0  0.09375 -0.78125 0  0.125 -0.78125 0  0.15625 -0.78125 0  0.1875 -0.78125 0  0.21875 -0.78125 0  0.25 -0.78125 0  0.28125 -0.78125 0  0.3125 -0.78125 0  0.34375 -0.78125 0  0.375 -0.78125 0  0.40625 -0.78125 0  0.4375 -0.78125 0  0.46875 -0.78125 0  0.5 -0.78125 0  0.53125 -0.78125 0  0.5625 -0.78125 0  0.59375 -0.78125 0  0.625 -0.78125 0  0.65625 -0.78125 0  0.6875 -0.78125 0  0.71875 -0.78125 0  0.75 -0.78125 0  0.78125 -0.78125 0  0.8125 -0.78125 0  0.84375 -0.78125 0  0.875 -0.78125 0  0.90625 -0.78125 0  0.9375 -0.78125 0  0.96875 -0.78125 0  1 -0.78125 0  -1 -0.75 0  -0.96875 -0.75 0  -0.9375 -0.75 0  -0.90625 -0.75 0  -0.875 -0.75 0  -0.84375 -0.75 0  -0.8125 -0.75 0  -0.78125 -0.75 0  -0.75 -0.75 0  -0.71875 -0.75 0  -0.6875 -0.75 0  -0.65625 -0.75 0  -0.625 -0.75 0  -0.59375 -0.75 0  -0.5625 -0.75 0  -0.53125 -0.75 0  -0.5 -0.75 0  -0.46875 -0.75 0  -0.4375 -0.75 0  -0.40625 -0.75
[...]
<PointData  Scalars="f_15"> 
<DataArray  type="Float64"  Name="f_15"  format="ascii">-4.3256053008781292e-01  -4.2840476544067924e-01  -4.1609717520408790e-01  -3.9611073316865519e-01  -3.6921350709327644e-01  -3.3643914229189070e-01  -2.9904713922374004e-01  -2.5847445159705579e-01  -2.1628026504390638e-01  -1.7408607849075711e-01  -1.3351339086407288e-01  -9.6121387795921998e-02  -6.3347022994536359e-02  -3.6449796919157784e-02  -1.6463354883724943e-02  -4.1557646471336663e-03  0.0000000000000000e+00  -4.1557646471336663e-03  -1.6463354883724968e-02  -3.6449796919157805e-02  -6.3347022994536414e-02  -9.6121387795922067e-02  -1.3351339086407302e-01  -1.7408607849075719e-01  -2.1628026504390646e-01  -2.5847445159705579e-01  -2.9904713922373999e-01  -3.3643914229189081e-01  -3.6921350709327644e-01  -3.9611073316865519e-01  -4.1609717520408795e-01  -4.2840476544067924e-01  -4.3256053008781292e-01  -4.2840476544067924e-01  -4.1609717520408795e-01  -3.9611073316865519e-01  -3.6921350709327644e-01  -3.3643914229189081e-01  -2.9904713922373999e-01  -2.5847445159705579e-01  -2.1628026504390646e-01  -1.7408607849075719e-01  -1.3351339086407302e-01  -9.6121387795922067e-02  -6.3347022994536414e-02  -3.6449796919157805e-02  -1.6463354883724968e-02  -4.1557646471336663e-03  0.0000000000000000e+00  -4.1557646471336663e-03  -1.6463354883724943e-02  -3.6449796919157784e-02  -6.3347022994536359e-02  -9.6121387795921998e-02  -1.3351339086407288e-01  -1.7408607849075711e-01  -2.1628026504390638e-01  -2.5847445159705579e-01  -2.9904713922374004e-01  -3.3643914229189070e-01  -3.6921350709327644e-01  -3.9611073316865519e-01  -4.1609717520408790e-01  -4.2840476544067924e-01  -4.3256053008781292e-01  -4.2840476544067924e-01  -3.5752524071457131e-01  -3.5128723906141912e-01  -3.3286570736481330e-01  -3.0584245704758017e-01  -2.7035619101003006e-01  -2.2778301902459575e-01  -1.7989566322794087e-01  -1.2863869010031492e-01  -7.5985898954240183e-02  -2.3846496589442212e-02  2.5999860418042423e-02  7.1949374803625413e-02  1.1260810608331383e-01  1.4681746980262428e-01  1.7367336243104145e-01  1.9253999996390325e-01  2.0305896057219130e-01  2.0515364937779973e-01  1.9902918260197067e-01  1.8516750929182249e-01  1.6431714354661170e-01  1.3747610663896570e-01  1.0586517687785987e-01  7.0886391137403693e-02  3.4059496994549340e-02  -3.0710854413049326e-03  -3.9060801228139798e-02  -7.2709338054911074e-02  -1.0319416600734027e-01  -1.3014974575214483e-01  -1.5365644470351181e-01  -1.7413465172884160e-01  -1.9217895967258955e-01  -2.0839000178668904e-01  -2.2325387979953340e-01  -2.3708982661467309e-01  -2.5005586250146128e-01  -2.6218584575893811e-01  -2.7343177803575008e-01  -2.8369617566855521e-01  -2.9285142960338001e-01  -3.0075116215329123e-01  -3.0724073694863707e-01  -3.1217224260937332e-01  -3.1542531253760597e-01  -3.1693148371966440e-01  -3.1669712333262207e-01  -3.1481918678468634e-01  -3.1148872078870149e-01  -3.0697953670152861e-01  -3.0162283216900271e-01  -2.9577482181170900e-01  -2.8978908968897787e-01  -2.8402125933719219e-01  -2.7887592025871633e-01  -2.7495134113801378e-01  -2.7311769109049072e-01  -2.7476171064093502e-01  -2.8104506817818459e-01  -2.9391962277347772e-01  -3.1066318859313419e-01  -3.3872186538475046e-01  -3.4529355096408598e-01  -4.2840476544067924e-01  -4.1609717520408790e-01  -3.3618084496484607e-01  -3.5582371684135861e-01  -3.4355676510569549e-01  -3.2294162038731244e-01  -2.9341886615717383e-01  -2.5686744196926475e-01  -2.1517250599766269e-01  -1.7031188825308397e-01  -1.2424064652865049e-01  -7.8814255547851722e-02  -3.5735477075124200e-02  3.4835262139927803e-03  3.7550817939299458e-02  6.5419507199493618e-02  8.6308540624594046e-02  9.9718810102667310e-02  1.0544351495113545e-01  1.0357184409151528e-01  9.4485507949353245e-02  7.8847956712616477e-02  5.7586095255380998e-02  3.1863262785730907e-02  3.0399687399080941e-03  -2.7384506006695924e-02  -5.7858886864486356e-02  -8.6901513000787550e-02  -1.1325082283495737e-01  -1.3601764778349179e-01  -1.5479351403916042e-01  -1.6966977848721174e-01  -1.8115070776832332e-01  -1.8998626461669749e-01  -1.9698084515614050e-01  -2.0283466468066411e-01  -2.0805061369432312e-01  -2.1290984407985492e-01  -2.1749934808526564e-01  -2.2176765686545089e-01  -2.2558748902617745e-01  -2.2881125849681788e-01  -2.3131304179319265e-01  -2.3301592011799474e-01  -2.3390637427784250e-01  -2.3403795197719368e-01  -2.3352640966612509e-01  -2.3253837788561060e-01  -2.3127597400246919e-01  -2.2996001785160036e-01  -2.2881465919703112e-01  -2.2805594507812524e-01  -2.2788629859894305e-01  -2.2849819761842130e-01  -2.3008840871016195e-01  -2.3289585732793783e-01  -2.3724643803084186e-01  -2.4366147588532514e-01  -2.5282626644878003e-01  -2.6580424427960420e-01  -2.8302797258447010e-01  -3.0562470463895453e-01  -3.2872125722941481e-01  -3.5821826302063758e-01  -3.5514008052442569e-01  -4.1609717520408790e-01  -3.9611073316865519e-01  -3.1131803336687397e-01  -3.3016197762150667e-01  -3.1762500806671085e-01  -2.9925352668794114e-01  -2.7167960916747852e-01  -2.3686468716942469e-01  -1.9646758381269749e-01  -1.5237471794405685e-01  -1.0652158991618797e-01  -6.0794606457730813e-02  -1.6953821053682316e-02  2.3422258963363123e-02  5.8975800118677014e-02  8.8597817970047135e-02  1.1144885821640982e-01  1.2697401997966049e-01  1.3491307418501264e-01  1.3530583908617255e-01  1.2849254692100653e-01  1.1510823643856487e-01  9.6068762412777009e-02  7.2543585026701829e-02  4.5907578385300109e-02  1.7662618700105347e-02  -1.0676824632939085e-02  -3.7728410598059633e-02  -6.2393270916881474e-02  -8.3974841304079673e-02  -1.0222608230666197e-01  -1.1730744154554376e-01  -1.2967098121323328e-01  -1.3991110928473369e-01  -1.4862593997250018e-01  -1.5631847099211590e-01  -1.6334644611220372e-01  -1.6991459730663586e-01  -1.7609587869179252e-01  -1.8186747193897873e-01  -1.8715002035723580e-01  -1.9184265444659507e-01  -1.9585033985251213e-01  -1.9910303748357289e-01  -2.0156775844631813e-01  -2.0325513691804825e-01  -2.0422201862557901e-01  -2.0457123478618816e-01  -2.0444935336898501e-01  -2.0404300013797808e-01  -2.0357421052979754e-01  -2.0329568755719579e-01  -2.0348697260603346e-01  -2.0445524063397272e-01  -2.0654121563486522e-01  -2.1014530934282907e-01  -2.1574597627954809e-01  -2.2398497978914322e-01  -2.3553826739143013e-01  -2.5133033508027236e-01  -2.7114040398236566e-01  -2.9556796604022278e-01  -3.1762944423650413e-01  -3.4456833516207558e-01  -3.3212291653995824e-01  -3.9611073316865519e-01  -3.6921350709327644e-01  -2.9143325283138310e-01  -3.0619467602762640e-01  -2.9480077136880745e-01  -2.7784293141197192e-01  -2.5261120437018308e-01  -2.2087662734531008e-01  -1.8396302043258117e-01  -1.4352971376779583e-01  -1.0132882878103712e-01  -5.9110780818598233e-02  -1.8534169594179022e-02  1.8902744249382711e-02  5.1911996456911226e-02  7.9451166693400216e-02  1.0074776233642829e-01  1.1531548362494441e-01  1.2296375401459682e-01  1.2380074225463167e-01  1.1822893236357995e-01  1.0693101851716444e-01  9.0842236456792333e-02  7.1103792111450889e-02  4.8991964178215594e-02  2.5820879336027648e-02  2.8250829135391046e-03  -1.8960579652220443e-02  -3.8797311820905407e-02  -5.6289171580587709e-02  -7.1367871316190656e-02  -8.4223466141587169e-02  -9.5205124905940200e-02  -1.0472043255608629e-01  -1.1315444359062521e-01  -1.2081790874927636e-01  -1.2792412443599771e-01  -1.3458843119058281e-01  -1.4084268460418206e-01  -1.4665760683701465e-01  -1.5196738348545485e-01  -1.5669270752752656e-01  -1.6076013833337818e-01  -1.6411704028455076e-01  -1.6674220185771935e-01  -1.6865270141753211e-01  -1.6990765574441852e-01  -1.7060950782698514e-01  -1.7090343702647739e-01  -1.7097554458768807e-01  -1.7105048045790863e-01  -1.7138962557964074e-01  -1.7229071126885151e-01  -1.7409247059589936e-01  -1.7718240134700075e-01  -1.8202403237381509e-01  -1.8916073882485093e-01  -1.9929297707912302e-01  -2.1304590164372322e-01  -2.3121596980843601e-01  -2.5293132944325625e-01  -2.7852910895360383e-01  -2.9910609986640618e-01  -3.2453601652667396e-01  -3.0567846093127354e-01  -3.6921350709327644e-01  -3.3643914229189070e-01  -2.7773214880707464e-01  -2.8417729864897545e-01  -2.7089613429601678e-01  -2.5279760103459731e-01  -2.2799029032526796e-01  -1.9761668568936044e-01  -1.6270806524381112e-01  -1.2463247166953287e-01  -8.4887698444720161e-02  -4.5024952860824238e-02  -6.5570418612183792e-03  2.9118197197786071e-02  6.0779275454204619e-02  8.7427234068090914e-02  1.0831852806461351e-01  1.2298671426706430e-01  1.3125440679441594e-01  1.3323574179867065e-01  1.2932822201190813e-01  1.2019133637026848e-01  1.0670838507134971e-01  8.9928148450210313e-02  7.0985653208279376e-02  5.1006723890230407e-02  3.1008300501593207e-02  1.1812306570772551e-02  -6.0088641475948487e-03  -2.2144384914084474e-02  -3.6515876979322424e-02  -4.9219662565835869e-02  -6.0458072950782003e-02  -7.0475497643460380e-02  -7.9508775973121185e-02  -8.7755061728829839e-02  -9.5355953339519170e-02  -1.0239456106981339e-01  -1.0890175653827511e-01  -1.1486803649962078e-01  -1.2025804335328902e-01  -1.2502540357680006e-01  -1.2912635938155714e-01  -1.3253130649440781e-01  -1.3523397661838496e-01  -1.3725829967689421e-01  -1.3866324783747624e-01  -1.3954597676135827e-01  -1.4004367673842119e-01  -1.4033454085455888e-01  -1.4063836792174106e-01  -1.4121773431990181e-01  -1.4238037312958801e-01  -1.4448650244524988e-01  -1.4795735585153544e-01  -1.5330420977221038e-01  -1.6111755992353000e-01  -1.7214191666126552e-01  -1.8692707865360517e-01  -2.0614986577992483e-01  -2.2826842166478711e-01  -2.5363007203134874e-01  -2.7145416624698526e-01  -2.9534611311075304e-01  -2.6948372741907217e-01  -3.3643914229189070e-01  -2.9904713922374004e-01  -2.7026971166046820e-01  -2.6657188167549767e-01  -2.5073657662037202e-01  -2.3079409865652592e-01  -2.0558410242503608e-01  -1.7591049556798452e-01  -1.4261142829080345e-01  -1.0678470976904922e-01  -6.9670648849171429e-02  -3.2584465887789439e-02  3.1654559842520932e-03  3.6350731354059210e-02  6.5886347325673111e-02  9.0881315344921720e-02  1.1067603325502996e-01  1.2486676832386220e-01  1.3331769113391237e-01  1.3616031697056047e-01  1.3377934380627246e-01  1.2678334157110843e-01  1.1595901876067687e-01  1.0220953577602099e-01  8.6480612889737060e-02  6.9682362881138396e-02  5.2618082757556438e-02  3.5931635222030897e-02  2.0081454109981849e-02  5.3426450235756120e-03  -8.1680499457141321e-03  -2.0453774117950362e-02  -3.1595290338172793e-02  -4.1712349813920253e-02  -5.0932812689060927e-02  -5.9370947716261502e-02  -6.7114574034090976e-02  -7.4219900108873235e-02  -8.0712473787296249e-02  -8.6592577162140610e-02  -9.1843361960383937e-02  -9.6440269916020227e-02  -1.0036052716010477e-01  -1.0359194557530539e-01  -1.0614055521240399e-01  -1.0803694512855737e-01  -1.0934131271482243e-01  -1.1014741816434666e-01  -1.1058564599676726e-01  -1.1082557109207021e-01  -1.1107841913909942e-01  -1.1160043917708981e-01  -1.1269757709085913e-01  -1.1473561803172161e-01  -1.1814992005194698e-01  -1.2347767030985556e-01  -1.3133196584294046e-01  -1.4248004510315962e-01  -1.5736988896958418e-01  -1.7658490834236087e-01  -1.9793878251935737e-01  -2.2211687792384524e-01  -2.3647807176667696e-01  -2.5920819118323590e-01  -2.2640419396202890e-01  -2.9904713922374004e-01  -2.5847445159705579e-01  -2.6796490818608093e-01  -2.5346756714898216e-01  -2.3488062486325695e-01  -2.1265501860886885e-01  -1.8647086938499649e-01  -1.5688271182737759e-01  -1.2455798278992558e-01  -9.0380223450227115e-02  -5.5367755668157083e-02  -2.0613919340399751e-02  1.2779062034034656e-02  4.3763791683539562e-02  7.1406113984493425e-02  9.4934321556823797e-02  1.1377700189667715e-01  1.2758823587630108e-01  1.3625940069733158e-01  1.3991697564929909e-01  1.3890580872630101e-01  1.3375771788735055e-01  1.2514639323472657e-01  1.1383150388879804e-01  1.0059727342373120e-01  8.6192795502221989e-02  7.1281892810668671e-02  5.6408803025276691e-02  4.1982625849167156e-02  2.8279529840316463e-02  1.5458588378628376e-02  3.5857099334375914e-03  -7.3396194273510412e-03  -1.7358799461863483e-02  -2.6532313896071771e-02  -3.4922934127668386e-02  -4.2584302522872181e-02  -4.9554667574923363e-02  -5.5855129378227189e-02  -6.1491487568800962e-02  -6.6458659752909488e-02  -7.0746650770553920e-02  -7.4347194891690199e-02  -7.7260402876578052e-02  -7.9500980004589161e-02  -8.1103790166630232e-02  -8.2128709987214873e-02  -8.2664836397411262e-02  -8.2834225026609296e-02  -8.2795466536851201e-02  -8.2747508682199170e-02  -8.2934722168619940e-02  -8.3653489382163576e-02  -8.5264829036342332e-02  -8.8205108250211856e-02  -9.3021818795826300e-02  -1.0033178810580157e-01  -1.1090929399437613e-01  -1.2508487237524171e-01  -1.4339331867767149e-01  -1.6305374340702053e-01  -1.8539923968879965e-01  -1.9587107146859647e-01  -2.1790647153335130e-01  -1.7799963940703908e-01  -2.5847445159705579e-01  -2.1628026504390638e-01  -2.6933713890149008e-01  -2.4412866357777324e-01  -2.2314950736988615e-01  -1.9878085753474872e-01  -1.7159399138960132e-01  -1.4192309720140331e-01  -1.1032122275854150e-01  -7.7513679276029063e-02  -4.4339592268917448e-02  -1.1702425698745030e-02  1.9484042471229947e-02  4.8349236957983488e-02  7.4115671473344150e-02  9.6141987318151600e-02  1.1395656147974813e-01  1.2727972454780931e-01  1.3603332531878903e-01  1.4033695777408225e-01  1.4049090033666667e-01  1.3694670057743255e-01  1.3026762836007325e-01  1.2108258068948947e-01  1.1003827637750926e-01  9.7755040722330211e-02  8.4790969365134292e-02  7.1617642090768485e-02  5.8608401512483775e-02  4.6038106056415957e-02  3.4091817714447199e-02  2.2879288371041095e-02  1.2452212266821024e-02  2.8217618172388425e-03  -6.0254358306343053e-03  -1.4114055055460727e-02  -2.1470216202334618e-02  -2.8115167740964803e-02  -3.4062322152302670e-02  -3.9317145117490085e-02  -4.3879275069981370e-02  -4.7746163385234540e-02  -5.0917618568669720e-02  -5.3400712878106667e-02  -5.5214704379429186e-02  -5.6395728503729349e-02  -5.7001193950499678e-02  -5.7113894427959340e-02  -5.6845992776182554e-02  -5.6343163421907934e-02  -5.5789301556562226e-02  -5.5412830453019181e-02  -5.5494764121303858e-02  -5.6383419780041445e-02  -5.8505748230337683e-02  -6.2406705421157831e-02  -6.8691719681097038e-02  -7.8131676518355495e-02  -9.0936750181900908e-02  -1.0765103265493159e-01  -1.2496518045416007e-01  -1.4512140354770556e-01  -1.5154671697014949e-01  -1.7340533173843128e-01  -1.2628278768283577e-01  -2.1628026504390638e-01  -1.7408607849075711e-01  -2.7307977649874415e-01  -2.3764776681502417e-01  -2.1483777056977754e-01  -1.8862679591157003e-01  -1.6057449765549822e-01  -1.3081131689688785e-01  -9.9807319180611906e-02  -6.8160516415927880e-02  -3.6564819373641748e-02  -5.7656221523220228e-03  2.3485381610336635e-02  5.0474259758715383e-02  7.4565812700548309e-02  9.5239001491422712e-02  1.1211456036394206e-01  1.2497296561669856e-01  1.3376151864881980e-01  1.3859006359089465e-01  1.3971568671664875e-01  1.3751775409524533e-01  1.3246561628198425e-01  1.2508221684779530e-01  1.1590731409523417e-01  1.0546400437677783e-01  9.4231538857206143e-02  8.2626303375323340e-02  7.0991491309168334e-02  5.9594816086746993e-02  4.8632770936317675e-02  3.8239525788293149e-02  2.8498510690983098e-02  1.9454918965279143e-02  1.1127713030484682e-02  3.5200821331805030e-03  -3.3722846667689366e-03  -9.5554155821637159e-03  -1.5033734701987701e-02  -1.9808968934752785e-02  -2.3880874486566055e-02  -2.7249340047293652e-02  -2.9917402613726569e-02  -3.1894808012930410e-02  -3.3201804227060053e-02  -3.3873002075304165e-02  -3.3961202709024543e-02  -3.3541235201410537e-02  -3.2713922757474437e-02  -3.1610497479138758e-02  -3.0397848542470175e-02  -2.9285698731933915e-02  -2.8535733805541971e-02  -2.8477938443468884e-02  -2.9522241997707248e-02  -3.2201356132061383e-02  -3.7098927150608967e-02  -4.4977754828743575e-02  -5.5937382352908516e-02  -7.0592594745692225e-02  -8.5178204465274326e-02  -1.0303389855899482e-01  -1.0546178033798465e-01  -1.2764932684238350e-01  -7.3223835177713539e-02  -1.7408607849075711e-01  -1.3351339086407288e-01  -2.7827134380523227e-01  -2.3327659936643416e-01  -2.0920963758289854e-01  -1.8148682192459267e-01  -1.5276446019992401e-01  -1.2297274517828635e-01  -9.2522579827178875e-02  -6.1908382479179042e-02  -3.1705044497058278e-02  -2.5260004382928964e-03  2.5014253093525462e-02  5.0336347751753253e-02  7.2929133617641584e-02  9.2377870032830225e-02  1.0838581183501579e-01  1.2078779070282644e-01  1.2955490898977670e-01  1.3479010757105636e-01  1.3671514116344344e-01  1.3565026848350831e-01  1.3198868692397156e-01  1.2616823925845025e-01  1.1864312336245980e-01  1.0985814081868032e-01  1.0022750017054724e-01  9.0119415824372370e-02  7.9846915080947253e-02  6.9664511640060794e-02  5.9769848874825428e-02  5.0309088759576966e-02  4.1384709707369627e-02  3.3064440707383395e-02  2.5390230687557403e-02  1.8386403669331964e-02  1.2066414587732608e-02  6.4378952745958347e-03  1.5059044703259789e-03  -2.7255098094883454e-03  -6.2532115760108829e-03  -9.0760400181930049e-03  -1.1196736704864315e-02  -1.2624451381232315e-02  -1.3377619893162248e-02  -1.3487060153402798e-02  -1.2999239043579115e-02  -1.1979738437469726e-02  -1.0517071557199255e-02  -8.7271562352798007e-03  -6.7588640494695594e-03  -4.8017370720088272e-03  -3.0958608631090952e-03  -1.9493467774268131e-03  -1.7501594283147520e-03  -3.0121251531016156e-03  -6.2915820637592769e-03  -1.2343121282175455e-02  -2.1175432559604201e-02  -3.3527821844238269e-02  -4.5251553819895131e-02  -6.0885924619341253e-02  -5.9518895320800159e-02  -8.2489880836230295e-02  -2.0727543458413152e-02  -1.3351339086407288e-01  -9.6121387795921998e-02  -2.8432494137612924e-01  -2.3048706361171364e-01  -2.0564449160633649e-01  -1.7668849162785816e-01  -1.4746057874332197e-01  -1.1769359561922275e-01  -8.7759845824742916e-02  -5.8066874034995039e-02  -2.9089469806999453e-02  -1.3294346905871220e-03  2.4714978585498374e-02  4.8578631765089565e-02  6.9855882000538647e-02  8.8222591905825334e-02  1.0345256340953922e-01  1.1542744659162262e-01  1.2413957766163417e-01  1.2968771914493885e-01  1.3226625742861095e-01  1.3214897552290167e-01  1.2966900121148037e-01  1.2519682889610279e-01  1.1911839069933271e-01  1.1181498325112327e-01  1.0364647443906194e-01  9.4938702905848285e-02  8.5975419821320634e-02  7.6994619641630249e-02  6.8188696507666458e-02  5.9707610700826169e-02  5.1664122522212350e-02  4.4140164195540656e-02  3.7193508824913887e-02  3.0864063904402446e-02  2.5179295886388880e-02  2.0158493358814110e-02  1.5815741894527564e-02  1.2161634628643494e-02  9.2038381352724762e-03  6.9466972932624837e-03  5.3900807630572018e-03  4.5276570460917806e-03  4.3447553245335065e-03  4.8159080978796348e-03  5.9021057906498810e-03  7.5477068848933378e-03  9.6768463469123212e-03  1.2189016181082556e-02  1.4953392635542588e-02  1.7800808376990520e-02  2.0513401916256772e-02  2.2806394777939654e-02  2.4316048382780002e-02  2.4550964387157728e-02  2.2983050848758225e-02  1.8863312684094254e-02  1.2248032650906090e-02  2.2369502600253959e-03  -6.7067950613567085e-03  -2.0335320361896184e-02  -1.5489141137348563e-02  -3.9628455152676122e-02  2.9435229927303529e-02  -9.6121387795921998e-02  -6.3347022994536359e-02  -2.9083747802630455e-01  -2.2891841054414019e-01  -2.0364715574920492e-01  -1.7366638325024944e-01  -1.4405029837159170e-01  -1.1433654220250668e-01  -8.4875089409126622e-02  -5.5999466089559892e-02  -2.8099398521562680e-02  -1.5813358560259679e-03  2.3155558396283634e-02  4.5743261861259633e-02  6.5865647926972304e-02  8.3275446399279446e-02  9.7806540410194792e-02  1.0938099430848484e-01  1.1801052029433733e-01  1.2379249268913466e-01  1.2690102322885025e-01  1.2757402030277057e-01  1.2609745010749190e-01  1.2278821608270529e-01  1.1797708801368786e-01  1.1199298467712381e-01  1.0514964416439200e-01  9.773535887