<?xml version="1.0"?>
<VTKFile type="UnstructuredGrid"  version="0.1"  >
<UnstructuredGrid>
<Piece  NumberOfPoints="4225" NumberOfCells="8192">
<Points>
<DataArray  type="Float64"  NumberOfComponents="3"  format="ascii">-1 -1 0  -0.96875 -1 0  -0.9375 -1 0  -0.90625 -1 0  -0.875 -1 0  -0.84375 -1 0  -0.8125 -1 0  -0.78125 -1 0  -0.75 -1 0  -0.71875 -1 0  -0.6875 -1 0  -0.65625 -1 0  -0.625 -1 0  -0.59375 -1 0  -0.5625 -1 0  -0.53125 -1 0  -0.5 -1 0  -0.46875 -1 0  -0.4375 -1 0  -0.40625 -1 0  -0.375 -1 0  -0.34375 -1 0  -0.3125 -1 0  -0.28125 -1 0  -0.25 -1 0  -0.21875 -1 0  -0.1875 -1 0  -0.15625 -1 0  -0.125 -1 0  -0.09375 -1 0  -0.0625 -1 0  -0.03125 -1 0  0 -1 0  0.03125 -1 0  0.0625 -1 0  0.09375 -1 0  0.125 -1 0  0.15625 -1 0  0.1875 -1 0  0.21875 -1 0  0.25 -1 0  0.28125 -1 0  0.3125 -1 0  0.34375 -1 0  0.375 -1 0  0.40625 -1 0  0.4375 -1 0  0.46875 -1 0  0.5 -1 0  0.53125 -1 0  0.5625 -1 0  0.59375 -1 0  0.625 -1 0  0.65625 -1 0  0.6875 -1 0  0.71875 -1 0  0.75 -1 0  0.78125 -1 0  0.8125 -1 0  0.84375 -1 0  0.875 -1 0  0.90625 -1 0  0.9375 -1 0  0.96875 -1 0  1 -1 0  -1 -0.96875 0  -0.96875 -0.96875 0  -0.9375 -0.96875 0  -0.90625 -0.96875 0  -0.875 -0.96875 0  -0.84375 -0.96875 0  -0.8125 -0.96875 0  -0.78125 -0.96875 0  -0.75 -0.96875 0  -0.71875 -0.96875 0  -0.6875 -0.96875 0  -0.65625 -0.96875 0  -0.625 -0.96875 0  -0.59375 -0.96875 0  -0.5625 -0.96875 0  -0.53125 -0.96875 0  -0.5 -0.96875 0  -0.46875 -0.96875 0  -0.4375 -0.96875 0  -0.40625 -0.96875 0  -0.375 -0.96875 0  -0.34375 -0.96875 0  -0.3125 -0.96875 0  -0.28125 -0.96875 0  -0.25 -0.96875 0  -0.21875 -0.96875 0  -0.1875 -0.96875 0  -0.15625 -0.96875 0  -0.125 -0.96875 0  -0.09375 -0.96875 0  -0.0625 -0.96875 0  -0.03125 -0.96875 0  0 -0.96875 0  0.03125 -0.96875 0  0.0625 -0.96875 0  0.09375 -0.96875 0  0.125 -0.96875 0  0.15625 -0.96875 0  0.1875 -0.96875 0  0.21875 -0.96875 0  0.25 -0.96875 0  0.28125 -0.96875 0  0.3125 -0.96875 0  0.34375 -0.96875 0  0.375 -0.96875 0  0.40625 -0.96875 0  0.4375 -0.96875 0  0.46875 -0.96875 0  0.5 -0.96875 0  0.53125 -0.96875 0  0.5625 -0.96875 0  0.59375 -0.96875 0  0.625 -0.96875 0  0.65625 -0.96875 0  0.6875 -0.96875 0  0.71875 -0.96875 0  0.75 -0.96875 0  0.78125 -0.96875 0  0.8125 -0.96875 0  0.84375 -0.96875 0  0.875 -0.96875 0  0.90625 -0.96875 0  0.9375 -0.96875 0  0.96875 -0.96875 0  1 -0.96875 0  -1 -0.9375 0  -0.96875 -0.9375 0  -0.9375 -0.9375 0  -0.90625 -0.9375 0  -0.875 -0.9375 0  -0.84375 -0.9375 0  -0.8125 -0.9375 0  -0.78125 -0.9375 0  -0.75 -0.9375 0  -0.71875 -0.9375 0  -0.6875 -0.9375 0  -0.65625 -0.9375 0  -0.625 -0.9375 0  -0.59375 -0.9375 0  -0.5625 -0.9375 0  -0.53125 -0.9375 0  -0.5 -0.9375 0  -0.46875 -0.9375 0  -0.4375 -0.9375 0  -0.40625 -0.9375 0  -0.375 -0.9375 0  -0.34375 -0.9375 0  -0.3125 -0.9375 0  -0.28125 -0.9375 0  -0.25 -0.9375 0  -0.21875 -0.9375 0  -0.1875 -0.9375 0  -0.15625 -0.9375 0  -0.125 -0.9375 0  -0.09375 -0.9375 0  -0.0625 -0.9375 0  -0.03125 -0.9375 0  0 -0.9375 0  0.03125 -0.9375 0  0.0625 -0.9375 0  0.09375 -0.9375 0  0.125 -0.9375 0  0.15625 -0.9375 0  0.1875 -0.9375 0  0.21875 -0.9375 0  0.25 -0.9375 0  0.28125 -0.9375 0  0.3125 -0.9375 0  0.34375 -0.9375 0  0.375 -0.9375 0  0.40625 -0.9375 0  0.4375 -0.9375 0  0.46875 -0.9375 0  0.5 -0.9375 0  0.53125 -0.9375 0  0.5625 -0.9375 0  0.59375 -0.9375 0  0.625 -0.9375 0  0.65625 -0.9375 0  0.6875 -0.9375 0  0.71875 -0.9375 0  0.75 -0.9375 0  0.78125 -0.9375 0  0.8125 -0.9375 0  0.84375 -0.9375 0  0.875 -0.9375 0  0.90625 -0.9375 0  0.9375 -0.9375 0  0.96875 -0.9375 0  1 -0.9375 0  -1 -0.90625 0  -0.96875 -0.90625 0  -0.9375 -0.90625 0  -0.90625 -0.90625 0  -0.875 -0.90625 0  -0.84375 -0.90625 0  -0.8125 -0.90625 0  -0.78125 -0.90625 0  -0.75 -0.90625 0  -0.71875 -0.90625 0  -0.6875 -0.90625 0  -0.65625 -0.90625 0  -0.625 -0.90625 0  -0.59375 -0.90625 0  -0.5625 -0.90625 0  -0.53125 -0.90625 0  -0.5 -0.90625 0  -0.46875 -0.90625 0  -0.4375 -0.90625 0  -0.40625 -0.90625 0  -0.375 -0.90625 0  -0.34375 -0.90625 0  -0.3125 -0.90625 0  -0.28125 -0.90625 0  -0.25 -0.90625 0  -0.21875 -0.90625 0  -0.1875 -0.90625 0  -0.15625 -0.90625 0  -0.125 -0.90625 0  -0.09375 -0.90625 0  -0.0625 -0.90625 0  -0.03125 -0.90625 0  0 -0.90625 0  0.03125 -0.90625 0  0.0625 -0.90625 0  0.09375 -0.90625 0  0.125 -0.90625 0  0.15625 -0.90625 0  0.1875 -0.90625 0  0.21875 -0.90625 0  0.25 -0.90625 0  0.28125 -0.90625 0  0.3125 -0.90625 0  0.34375 -0.90625 0  0.375 -0.90625 0  0.40625 -0.90625 0  0.4375 -0.90625 0  0.46875 -0.90625 0  0.5 -0.90625 0  0.53125 -0.90625 0  0.5625 -0.90625 0  0.59375 -0.90625 0  0.625 -0.90625 0  0.65625 -0.90625 0  0.6875 -0.90625 0  0.71875 -0.90625 0  0.75 -0.90625 0  0.78125 -0.90625 0  0.8125 -0.90625 0  0.84375 -0.90625 0  0.875 -0.90625 0  0.90625 -0.90625 0  0.9375 -0.90625 0  0.96875 -0.90625 0  1 -0.90625 0  -1 -0.875 0  -0.96875 -0.875 0  -0.9375 -0.875 0  -0.90625 -0.875 0  -0.875 -0.875 0  -0.84375 -0.875 0  -0.8125 -0.875 0  -0.78125 -0.875 0  -0.75 -0.875 0  -0.71875 -0.875 0  -0.6875 -0.875 0  -0.65625 -0.875 0  -0.625 -0.875 0  -0.59375 -0.875 0  -0.5625 -0.875 0  -0.53125 -0.875 0  -0.5 -0.875 0  -0.46875 -0.875 0  -0.4375 -0.875 0  -0.40625 -0.875 0  -0.375 -0.875 0  -0.34375 -0.875 0  -0.3125 -0.875 0  -0.28125 -0.875 0  -0.25 -0.875 0  -0.21875 -0.875 0  -0.1875 -0.875 0  -0.15625 -0.875 0  -0.125 -0.875 0  -0.09375 -0.875 0  -0.0625 -0.875 0  -0.03125 -0.875 0  0 -0.875 0  0.03125 -0.875 0  0.0625 -0.875 0  0.09375 -0.875 0  0.125 -0.875 0  0.15625 -0.875 0  0.1875 -0.875 0  0.21875 -0.875 0  0.25 -0.875 0  0.28125 -0.875 0  0.3125 -0.875 0  0.34375 -0.875 0  0.375 -0.875 0  0.40625 -0.875 0  0.4375 -0.875 0  0.46875 -0.875 0  0.5 -0.875 0  0.53125 -0.875 0  0.5625 -0.875 0  0.59375 -0.875 0  0.625 -0.875 0  0.65625 -0.875 0  0.6875 -0.875 0  0.71875 -0.875 0  0.75 -0.875 0  0.78125 -0.875 0  0.8125 -0.875 0  0.84375 -0.875 0  0.875 -0.875 0  0.90625 -0.875 0  0.9375 -0.875 0  0.96875 -0.875 0  1 -0.875 0  -1 -0.84375 0  -0.96875 -0.84375 0  -0.9375 -0.84375 0  -0.90625 -0.84375 0  -0.875 -0.84375 0  -0.84375 -0.84375 0  -0.8125 -0.84375 0  -0.78125 -0.84375 0  -0.75 -0.84375 0  -0.71875 -0.84375 0  -0.6875 -0.84375 0  -0.65625 -0.84375 0  -0.625 -0.84375 0  -0.59375 -0.84375 0  -0.5625 -0.84375 0  -0.53125 -0.84375 0  -0.5 -0.84375 0  -0.46875 -0.84375 0  -0.4375 -0.84375 0  -0.40625 -0.84375 0  -0.375 -0.84375 0  -0.34375 -0.84375 0  -0.3125 -0.84375 0  -0.28125 -0.84375 0  -0.25 -0.84375 0  -0.21875 -0.84375 0  -0.1875 -0.84375 0  -0.15625 -0.84375 0  -0.125 -0.84375 0  -0.09375 -0.84375 0  -0.0625 -0.84375 0  -0.03125 -0.84375 0  0 -0.84375 0  0.03125 -0.84375 0  0.0625 -0.84375 0  0.09375 -0.84375 0  0.125 -0.84375 0  0.15625 -0.84375 0  0.1875 -0.84375 0  0.21875 -0.84375 0  0.25 -0.84375 0  0.28125 -0.84375 0  0.3125 -0.84375 0  0.34375 -0.84375 0  0.375 -0.84375 0  0.40625 -0.84375 0  0.4375 -0.84375 0  0.46875 -0.84375 0  0.5 -0.84375 0  0.53125 -0.84375 0  0.5625 -0.84375 0  0.59375 -0.84375 0  0.625 -0.84375 0  0.65625 -0.84375 0  0.6875 -0.84375 0  0.71875 -0.84375 0  0.75 -0.84375 0  0.78125 -0.84375 0  0.8125 -0.84375 0  0.84375 -0.84375 0  0.875 -0.84375 0  0.90625 -0.84375 0  0.9375 -0.84375 0  0.96875 -0.84375 0  1 -0.84375 0  -1 -0.8125 0  -0.96875 -0.8125 0  -0.9375 -0.8125 0  -0.90625 -0.8125 0  -0.875 -0.8125 0  -0.84375 -0.8125 0  -0.8125 -0.8125 0  -0.78125 -0.8125 0  -0.75 -0.8125 0  -0.71875 -0.8125 0  -0.6875 -0.8125 0  -0.65625 -0.8125 0  -0.625 -0.8125 0  -0.59375 -0.8125 0  -0.5625 -0.8125 0  -0.53125 -0.8125 0  -0.5 -0.8125 0  -0.46875 -0.8125 0  -0.4375 -0.8125 0  -0.40625 -0.8125 0  -0.375 -0.8125 0  -0.34375 -0.8125 0  -0.3125 -0.8125 0  -0.28125 -0.8125 0  -0.25 -0.8125 0  -0.21875 -0.8125 0  -0.1875 -0.8125 0  -0.15625 -0.8125 0  -0.125 -0.8125 0  -0.09375 -0.8125 0  -0.0625 -0.8125 0  -0.03125 -0.8125 0  0 -0.8125 0  0.03125 -0.8125 0  0.0625 -0.8125 0  0.09375 -0.8125 0  0.125 -0.8125 0  0.15625 -0.8125 0  0.1875 -0.8125 0  0.21875 -0.8125 0  0.25 -0.8125 0  0.28125 -0.8125 0  0.3125 -0.8125 0  0.34375 -0.8125 0  0.375 -0.8125 0  0.40625 -0.8125 0  0.4375 -0.8125 0  0.46875 -0.8125 0  0.5 -0.8125 0  0.53125 -0.8125 0  0.5625 -0.8125 0  0.59375 -0.8125 0  0.625 -0.8125 0  0.65625 -0.8125 0  0.6875 -0.8125 0  0.71875 -0.8125 0  0.75 -0.8125 0  0.78125 -0.8125 0  0.8125 -0.8125 0  0.84375 -0.8125 0  0.875 -0.8125 0  0.90625 -0.8125 0  0.9375 -0.8125 0  0.96875 -0.8125 0  1 -0.8125 0  -1 -0.78125 0  -0.96875 -0.78125 0  -0.9375 -0.78125 0  -0.90625 -0.78125 0  -0.875 -0.78125 0  -0.84375 -0.78125 0  -0.8125 -0.78125 0  -0.78125 -0.78125 0  -0.75 -0.78125 0  -0.71875 -0.78125 0  -0.6875 -0.78125 0  -0.65625 -0.78125 0  -0.625 -0.78125 0  -0.59375 -0.78125 0  -0.5625 -0.78125 0  -0.53125 -0.78125 0  -0.5 -0.78125 0  -0.46875 -0.78125 0  -0.4375 -0.78125 0  -0.40625 -0.78125 0  -0.375 -0.78125 0  -0.34375 -0.78125 0  -0.3125 -0.78125 0  -0.28125 -0.78125 0  -0.25 -0.78125 0  -0.21875 -0.78125 0  -0.1875 -0.78125 0  -0.15625 -0.78125 0  -0.125 -0.78125 0  -0.09375 -0.78125 0  -0.0625 -0.78125 0  -0.03125 -0.78125 0  0 -0.78125 0  0.03125 -0.78125 0  0.0625 -0.78125 0  0.09375 -0.78125 0  0.125 -0.78125 0  0.15625 -0.78125 0  0.1875 -0.78125 0  0.21875 -0.78125 0  0.25 -0.78125 0  0.28125 -0.78125 0  0.3125 -0.78125 0  0.34375 -0.78125 0  0.375 -0.78125 0  0.40625 -0.78125 0  0.4375 -0.78125 0  0.46875 -0.78125 0  0.5 -0.78125 0  0.53125 -0.78125 0  0.5625 -0.78125 0  0.59375 -0.78125 0  0.625 -0.78125 0  0.65625 -0.78125 0  0.6875 -0.78125 0  0.71875 -0.78125 0  0.75 -0.78125 0  0.78125 -0.78125 0  0.8125 -0.78125 0  0.84375 -0.78125 0  0.875 -0.78125 0  0.90625 -0.78125 0  0.9375 -0.78125 0  0.96875 -0.78125 0  1 -0.78125 0  -1 -0.75 0  -0.96875 -0.75 0  -0.9375 -0.75 0  -0.90625 -0.75 0  -0.875 -0.75 0  -0.84375 -0.75 0  -0.8125 -0.75 0  -0.78125 -0.75 0  -0.75 -0.75 0  -0.71875 -0.75 0  -0.6875 -0.75 0  -0.65625 -0.75 0  -0.625 -0.75 0  -0.59375 -0.75 0  -0.5625 -0.75 0  -0.53125 -0.75 0  -0.5 -0.75 0  -0.46875 -0.75 0  -0.4375 -0.75 0  -0.40625 -0.75
[...]
<PointData  Scalars="f_15"> 
<DataArray  type="Float64"  Name="f_15"  format="ascii">-4.8292773028234354e-01  -4.7828806982090366e-01  -4.6454738798616585e-01  -4.4223373147517586e-01  -4.1220460159400829e-01  -3.7561400096346625e-01  -3.3386808584553651e-01  -2.8857112834682191e-01  -2.4146386514117171e-01  -1.9435660193552148e-01  -1.4905964443680686e-01  -1.0731372931887717e-01  -7.0723128688335149e-02  -4.0693998807167557e-02  -1.8380342296177580e-02  -4.6396604614397973e-03  0.0000000000000000e+00  -4.6396604614397973e-03  -1.8380342296177608e-02  -4.0693998807167578e-02  -7.0723128688335204e-02  -1.0731372931887723e-01  -1.4905964443680703e-01  -1.9435660193552162e-01  -2.4146386514117177e-01  -2.8857112834682191e-01  -3.3386808584553646e-01  -3.7561400096346637e-01  -4.1220460159400829e-01  -4.4223373147517586e-01  -4.6454738798616591e-01  -4.7828806982090366e-01  -4.8292773028234354e-01  -4.7828806982090366e-01  -4.6454738798616591e-01  -4.4223373147517586e-01  -4.1220460159400829e-01  -3.7561400096346637e-01  -3.3386808584553646e-01  -2.8857112834682191e-01  -2.4146386514117177e-01  -1.9435660193552162e-01  -1.4905964443680703e-01  -1.0731372931887723e-01  -7.0723128688335204e-02  -4.0693998807167578e-02  -1.8380342296177608e-02  -4.6396604614397973e-03  0.0000000000000000e+00  -4.6396604614397973e-03  -1.8380342296177580e-02  -4.0693998807167557e-02  -7.0723128688335149e-02  -1.0731372931887717e-01  -1.4905964443680686e-01  -1.9435660193552148e-01  -2.4146386514117171e-01  -2.8857112834682191e-01  -3.3386808584553651e-01  -3.7561400096346625e-01  -4.1220460159400829e-01  -4.4223373147517586e-01  -4.6454738798616585e-01  -4.7828806982090366e-01  -4.8292773028234354e-01  -4.7828806982090366e-01  -3.6763083884310638e-01  -2.9026653304484729e-01  -1.9129388100518532e-01  -8.3097636428011087e-02  2.9962638230498401e-02  1.4468271173956443e-01  2.5844689159195700e-01  3.6887761451965112e-01  4.7370985067481031e-01  5.7076442053197585e-01  6.5797399551366020e-01  7.3343630098559298e-01  7.9547874994871204e-01  8.4272387255272019e-01  8.7414769601627429e-01  8.8912553399042682e-01  8.8746110600825723e-01  8.6939669277899989e-01  8.3560320474350358e-01  7.8715068548666112e-01  7.2546084972394154e-01  6.5224476942324983e-01  5.6942964130802687e-01  4.7907953912035245e-01  3.8331509023886179e-01  2.8423692598774247e-01  1.8385676610304591e-01  8.4038960868842438e-02  -1.3546037830921115e-02  -1.0745581059453341e-01  -1.9649798036941513e-01  -2.7974069373849830e-01  -3.5651216043143685e-01  -4.2638989383402104e-01  -4.8918029616913877e-01  -5.4488973099880467e-01  -5.9368863785795412e-01  -6.3587112150158687e-01  -6.7181281163013895e-01  -7.0193031723848875e-01  -7.2664521488546052e-01  -7.4635521101889390e-01  -7.6141391481753717e-01  -7.7211977208341309e-01  -7.7871327455398509e-01  -7.8138084585782153e-01  -7.8026288333725824e-01  -7.7546351732482333e-01  -7.6705964621498046e-01  -7.5510783735312637e-01  -7.3964845086640685e-01  -7.2070817434391854e-01  -6.9830219510654035e-01  -6.7244356253657367e-01  -6.4314985424268156e-01  -6.1051004518878205e-01  -5.7461757537368863e-01  -5.3610149873230561e-01  -4.9486062355841026e-01  -4.5508867932987390e-01  -4.1152098789443353e-01  -3.9471617849335272e-01  -3.4733148754448673e-01  -4.7828806982090366e-01  -4.6454738798616585e-01  -3.7799488916268942e-01  -3.2941691436689485e-01  -2.5889172336562954e-01  -1.8374847227241847e-01  -1.0490242477741005e-01  -2.4718280779390495e-02  5.4814928090617297e-02  1.3190550529036849e-01  2.0491028086954732e-01  2.7231310524290986e-01  3.3272937382307238e-01  3.8492601027847323e-01  4.2784943842506523e-01  4.6065556334895252e-01  4.8273723728139439e-01  4.9374536849894302e-01  4.9360113389792426e-01  4.8249746370065016e-01  4.6088940338967260e-01  4.2947372785670090e-01  3.8915949252019294e-01  3.4103163427058675e-01  2.8631041095382442e-01  2.2630919992316270e-01  1.6239307251801763e-01  9.5939712012754738e-02  2.8303710071499833e-02  -3.9215483193718315e-02  -1.0540197798257941e-01  -1.6914844081094041e-01  -2.2947773165394222e-01  -2.8556097877087389e-01  -3.3673169862892149e-01  -3.8249535574321497e-01  -4.2253389177992934e-01  -4.5670477430002554e-01  -4.8503453255709367e-01  -5.0770677890280269e-01  -5.2504510699470697e-01  -5.3749111513680670e-01  -5.4557815959788747e-01  -5.4990128606211364e-01  -5.5108429234211631e-01  -5.4974494252513706e-01  -5.4646008184332262e-01  -5.4173253503400787e-01  -5.3596228584011674e-01  -5.2942422379147080e-01  -5.2225489225602884e-01  -5.1444991906291937e-01  -5.0587341514319151e-01  -4.9627986310695571e-01  -4.8534752879838056e-01  -4.7272683509115809e-01  -4.5808745120760713e-01  -4.4122726284936420e-01  -4.2201679250453294e-01  -4.0101601930489422e-01  -3.7790166497192251e-01  -3.5752978682772552e-01  -3.3139294788782597e-01  -3.3812221826234462e-01  -2.7668861413864726e-01  -4.6454738798616585e-01  -4.4223373147517586e-01  -4.0458243155292073e-01  -3.3945927238640061e-01  -2.6573949204749281e-01  -1.8872460506649541e-01  -1.0864098161525299e-01  -2.7648399772756814e-02  5.2572597044139524e-02  1.3040974880687067e-01  2.0433012698534092e-01  2.7287686292213720e-01  3.3468485905346546e-01  3.8850933200243198e-01  4.3326210355166872e-01  4.6805033617813796e-01  4.9221269067148599e-01  5.0534859042359481e-01  5.0733705962423903e-01  4.9834287245910608e-01  4.7880899284503214e-01  4.4943574467898650e-01  4.1114834283324087e-01  3.6505549142944910e-01  3.1240231081210590e-01  2.5452108600346379e-01  1.9278300437107562e-01  1.2855349730631138e-01  6.3152942947526367e-02  -2.1763446335283350e-03  -6.6296649783607317e-02  -1.2819522456830629e-01  -1.8699904214958565e-01  -2.4198451284859915e-01  -2.9258259159484540e-01  -3.3837955275723064e-01  -3.7911355072010189e-01  -4.1466706006553000e-01  -4.4505530629828421e-01  -4.7041098140043885e-01  -4.9096566983964507e-01  -5.0702867011247843e-01  -5.1896400371096663e-01  -5.2716662772427825e-01  -5.3203888293011903e-01  -5.3396830258865546e-01  -5.3330779745470780e-01  -5.3035921322134438e-01  -5.2536101911802435e-01  -5.1848080933421270e-01  -5.0981303095865271e-01  -4.9938235210330179e-01  -4.8715287027092669e-01  -4.7304377805567460e-01  -4.5695076964900672e-01  -4.3877880035756789e-01  -4.1846782455083814e-01  -3.9608907355414036e-01  -3.7173378584317585e-01  -3.4621754110946146e-01  -3.1902855151216580e-01  -2.9581495551782055e-01  -2.6414970829036033e-01  -2.7291682292497327e-01  -1.7652648065632479e-01  -4.4223373147517586e-01  -4.1220460159400829e-01  -4.4156808286471805e-01  -3.6013652690693421e-01  -2.9138210154038169e-01  -2.1899030299653205e-01  -1.4559083622722857e-01  -7.2330837915491622e-02  -4.4847672939445901e-04  6.8793558206801275e-02  1.3417593415381604e-01  1.9454255099889456e-01  2.4882398147521376e-01  2.9606278602937552e-01  3.3543980470922263e-01  3.6629934848829016e-01  3.8817094251281242e-01  4.0078558828226007e-01  4.0408492167872989e-01  3.9822237912316899e-01  3.8355607636367439e-01  3.6063390635052878e-01  3.3017181508217303e-01  2.9302676458411064e-01  2.5016602127355042e-01  2.0263455340213574e-01  1.5152210500101493e-01  9.7931346859919541e-02  4.2948129579527199e-02  -1.2385373295759188e-02  -6.7094167625100579e-02  -1.2029026198438449e-01  -1.7118863926991212e-01  -2.1911925319474207e-01  -2.6353496962965045e-01  -3.0401542787209784e-01  -3.4026682363054384e-01  -3.7211775286199966e-01  -3.9951130979131511e-01  -4.2249381090846994e-01  -4.4120057268040774e-01  -4.5583933847141345e-01  -4.6667196719851761e-01  -4.7399513230669554e-01  -4.7812075981259050e-01  -4.7935707204117567e-01  -4.7799105287766114e-01  -4.7427325989012920e-01  -4.6840583394136759e-01  -4.6053458714035961e-01  -4.5074589224922057e-01  -4.3906903627945831e-01  -4.2548440117023706e-01  -4.0993808831195044e-01  -3.9236179539155625e-01  -3.7270370697995969e-01  -3.5094775362478486e-01  -3.2721060872098051e-01  -3.0158328813796453e-01  -2.7493453909920140e-01  -2.4636115607155626e-01  -2.2222151452468111e-01  -1.8602713355951342e-01  -1.9780241414856994e-01  -6.8812434449979865e-02  -4.1220460159400829e-01  -3.7561400096346625e-01  -4.8168104206758788e-01  -3.8266265888170081e-01  -3.1695927802589668e-01  -2.4583398859839767e-01  -1.7563982423293364e-01  -1.0623523178863842e-01  -3.8636336960692116e-02  2.6197663489861852e-02  8.7284060653631285e-02  1.4366851787780471e-01  1.9445408618681434e-01  2.3882934721918445e-01  2.7609463091635356e-01  3.0568606463773251e-01  3.2719623763140537e-01  3.4038994070093892e-01  3.4521377725036784e-01  3.4179866345526017e-01  3.3045496960415510e-01  3.1166043882315436e-01  2.8604178564057153e-01  2.5435114124896652e-01  2.1743898494959413e-01  1.7622513474220558e-01  1.3166944779338299e-01  8.4743531899464472e-02  3.6404580914148874e-02  -1.2427988660975034e-02  -6.0892630515019967e-02  -1.0820231087537469e-01  -1.5365763385337927e-01  -1.9665647085055776e-01  -2.3670015349557083e-01  -2.7339626688904139e-01  -3.0645816041842566e-01  -3.3570124932067391e-01  -3.6103634378906080e-01  -3.8246022100457311e-01  -4.0004387535495867e-01  -4.1391884099810844e-01  -4.2426221131470065e-01  -4.3128090585583911e-01  -4.3519595344574891e-01  -4.3622741928096820e-01  -4.3458079206223443e-01  -4.3043545783178838e-01  -4.2393601456586189e-01  -4.1518692618416869e-01  -4.0425108224201867e-01  -3.9115255450278974e-01  -3.7588381242213981e-01  -3.5841773915497865e-01  -3.3872307456325168e-01  -3.1678952073058880e-01  -2.9263623741649997e-01  -2.6640641306302876e-01  -2.3815776282194481e-01  -2.0877757453820053e-01  -1.7691331661097667e-01  -1.4971723048107893e-01  -1.0656833497610070e-01  -1.1954096914673419e-01  4.3245571857437777e-02  -3.7561400096346625e-01  -3.3386808584553651e-01  -5.2162268845742199e-01  -4.0526722082940581e-01  -3.4342690664902786e-01  -2.7384775717216603e-01  -2.0695207306120961e-01  -1.4138584627414535e-01  -7.8073311246081314e-02  -1.7691970182016441e-02  3.8983833128530952e-02  9.1193316341556918e-02  1.3821386302267424e-01  1.7939104095449787e-01  2.1416279053167575e-01  2.4208026964816412e-01  2.6282461172228522e-01  2.7621913151324162e-01  2.8223628488478653e-01  2.8099911241649433e-01  2.7277700830333451e-01  2.5797621457598974e-01  2.3712555669067154e-01  2.1085839089259126e-01  1.7989171999138620e-01  1.4500367217550794e-01  1.0701034807197123e-01  6.6743076415620911e-02  2.5026844577787481e-02  -1.7339408878894617e-02  -5.9600201573729090e-02  -1.0105827470298685e-01  -1.4108652666508717e-01  -1.7913700829343973e-01  -2.1474692143257934e-01  -2.4754166045670001e-01  -2.7723492693185287e-01  -3.0362609271231761e-01  -3.2659494737162420e-01  -3.4609415901163848e-01  -3.6213971545316609e-01  -3.7479983714606629e-01  -3.8418274910146910e-01  -3.9042392509824064e-01  -3.9367327591792001e-01  -3.9408296454749814e-01  -3.9179633680612119e-01  -3.8693864154766622e-01  -3.7960996600781238e-01  -3.6988096311494101e-01  -3.5779163736734571e-01  -3.4335357706274777e-01  -3.2655560148418861e-01  -3.0737328917604556e-01  -2.8578051103752861e-01  -2.6176995058538166e-01  -2.3535245567672067e-01  -2.0665195374377343e-01  -1.7564760176651398e-01  -1.4321444712196221e-01  -1.0752050152452858e-01  -7.6604722815898793e-02  -2.5651871516687651e-02  -3.9348108917107667e-02  1.5699136890458723e-01  -3.3386808584553651e-01  -2.8857112834682191e-01  -5.5985335170002570e-01  -4.2653698855469152e-01  -3.6917936842214438e-01  -3.0093728798968783e-01  -2.3682582237067204e-01  -1.7437377508717186e-01  -1.1450416470071545e-01  -5.7666801644252787e-02  -4.4742646680521634e-03  4.4470477314225161e-02  8.8584705014233850e-02  1.2733767290055104e-01  1.6027275746544548e-01  1.8702636086829727e-01  2.0734274557997087e-01  2.2108469636800934e-01  2.2823972473321652e-01  2.2892161192468216e-01  2.2336730425259185e-01  2.1192939367839972e-01  1.9506467270584882e-01  1.7331944549185646e-01  1.4731242642693398e-01  1.1771612066538600e-01  8.5237576412775420e-02  5.0599326637844416e-02  1.4521218430252216e-02  -2.2296303242543818e-02  -5.9187038562734114e-02  -9.5531703455555436e-02  -1.3076823950537433e-01  -1.6439965003919915e-01  -1.9599932022797076e-01  -2.2521382790671365e-01  -2.5176330602129676e-01  -2.7543946553678483e-01  -2.9610145208964356e-01  -3.1366975745091474e-01  -3.2811848425346196e-01  -3.3946629961550029e-01  -3.4776648779935571e-01  -3.5309653010808467e-01  -3.5554769092448740e-01  -3.5521508032521321e-01  -3.5218868973581130e-01  -3.4654583411768869e-01  -3.3834544216583962e-01  -3.2762451425111827e-01  -3.1439704242182065e-01  -2.9865553906143716e-01  -2.8037517125607858e-01  -2.5952076937234198e-01  -2.3605473790371437e-01  -2.0995332195802285e-01  -1.8119792254365685e-01  -1.4987188420956790e-01  -1.1585760549717315e-01  -8.0010186698992042e-02  -4.0016821465990358e-02  -4.8722098090194840e-03  5.4453301935722176e-02  4.0399369724008101e-02  2.6966383536270960e-01  -2.8857112834682191e-01  -2.4146386514117171e-01  -5.9562752158469789e-01  -4.4574146877604126e-01  -3.9349902076937671e-01  -3.2663878977663630e-01  -2.6517096810908530e-01  -2.0550971788271297e-01  -1.4866227145933614e-01  -9.4902361171182781e-02  -4.4720824426802336e-02  1.4070885857187410e-03  4.3014442514695030e-02  7.9675309860340840e-02  1.1102386440747548e-01  1.3677121984372639e-01  1.5671821524678686e-01  1.7076445773203783e-01  1.7891354600808040e-01  1.8127438241748348e-01  1.7805873108427434e-01  1.6957518293047172e-01  1.5622000257017515e-01  1.3846531508878368e-01  1.1684533624783894e-01  9.1941256354190010e-02  6.4365525326768563e-02  3.4746124267170934e-02  3.7114425841749824e-03  -2.8123804598252006e-02  -6.0171203460211965e-02  -9.1879549139521038e-02  -1.2274382145076533e-01  -1.5231210402063072e-01  -1.8019038963229492e-01  -2.0604524749903380e-01  -2.2960442328216266e-01  -2.5065543536646401e-01  -2.6904235048202380e-01  -2.8466089839925796e-01  -2.9745221622595069e-01  -3.0739546997733369e-01  -3.1449973680834103e-01  -3.1879546048296464e-01  -3.2032592169618235e-01  -3.1913905631036532e-01  -3.1528006038600331e-01  -3.0878509407458882e-01  -2.9967644463726367e-01  -2.8795936469936573e-01  -2.7362080541493156e-01  -2.5663010419753141e-01  -2.3694157679497149e-01  -2.1449922692590043e-01  -1.8924146948727294e-01  -1.6111390352125782e-01  -1.3005401288354498e-01  -9.6091073090136217e-02  -5.9002648014525302e-02  -1.9620806473039411e-02  2.4834321859776669e-02  6.4388019057011192e-02  1.3222609766345256e-01  1.1799816214896527e-01  3.7898702966161951e-01  -2.4146386514117171e-01  -1.9435660193552148e-01  -6.2859998576058873e-01  -4.6259543242728707e-01  -4.1596627543123299e-01  -3.5052466286528955e-01  -2.9157738030777469e-01  -2.3441628218347946e-01  -1.8020815656125297e-01  -1.2908992953128526e-01  -8.1466316818501736e-02  -3.7713156706308412e-02  1.7948891461639672e-03  3.6717022110939600e-02  6.6761756806692552e-02  9.1701642633566408e-02  1.1138410860419171e-01  1.2573918270802617e-01  1.3478391030530015e-01  1.3862358313308762e-01  1.3744981541926940e-01  1.3153574682947233e-01  1.2122862750158028e-01  1.0694026971179731e-01  8.9135795669988790e-02  6.8321279624406428e-02  4.5030772282957696e-02  1.9813275980819778e-02  -6.7799063179993955e-03  -3.4207001383960073e-02  -6.1946476039525793e-02  -8.9506348796896118e-02  -1.1643192693540445e-01  -1.4231183996045751e-01  -1.6678229732845049e-01  -1.8952956746959956e-01  -2.1029068934149880e-01  -2.2885252020269248e-01  -2.4504921434611449e-01  -2.5875833209789506e-01  -2.6989575035315366e-01  -2.7840966049472277e-01  -2.8427388742711296e-01  -2.8748087793264615e-01  -2.8803461727090246e-01  -2.8594384651368199e-01  -2.8121583253777477e-01  -2.7385101788551741e-01  -2.6383874461020695e-01  -2.5115427934646750e-01  -2.3575721140675368e-01  -2.1759131290780806e-01  -1.9658567407355887e-01  -1.7265741781040611e-01  -1.4571371831689894e-01  -1.1566173522166308e-01  -8.2388068984310836e-02  -4.5862036445175391e-02  -5.7570565715816535e-03  3.7119753622828607e-02  8.5985960346203913e-02  1.2991475160005683e-01  2.0607198205049576e-01  1.9179190749490596e-01  4.8269442649601424e-01  -1.9435660193552148e-01  -1.4905964443680686e-01  -6.5862604521686319e-01  -4.7710555284293210e-01  -4.3639572184506292e-01  -3.7238228354983105e-01  -3.1585950555969211e-01  -2.6097785214853159e-01  -2.0911691484049086e-01  -1.6030535689909325e-01  -1.1489109037643508e-01  -7.3173916995270621e-02  -3.5455902826415898e-02  -2.0089639523181353e-03  2.6936588279239126e-02  5.1204507221376282e-02  7.0681555312417599e-02  8.5323880454344289e-02  9.5160682225271770e-02  1.0029521634259696e-01  1.0090326965722636e-01  9.7229250524245636e-02  8.9580189829377516e-02  7.8317951234788852e-02  6.3850071880552195e-02  4.6619618904088569e-02  2.7094525266160685e-02  5.7567893228899578e-03  -1.6908047999220074e-02  -4.0420838203519556e-02  -6.4317864882740286e-02  -8.8158775434780512e-02  -1.1153322365195098e-01  -1.3406610759243334e-01  -1.5542133400604619e-01  -1.7530408114263898e-01  -1.9346158908870806e-01  -2.0968252686913622e-01  -2.2379505192391919e-01  -2.3566368382920624e-01  -2.4518518487328300e-01  -2.5228362569401902e-01  -2.5690489118161525e-01  -2.5901083994489338e-01  -2.5857340515936050e-01  -2.5556885092754433e-01  -2.4997245893397715e-01  -2.4175382678717014e-01  -2.3087298527537850e-01  -2.1727743138667882e-01  -2.0090017070863347e-01  -1.8165874842309973e-01  -1.5945514086292101e-01  -1.3417672996029853e-01  -1.0569615193562626e-01  -7.3878894012385288e-02  -3.8558839465082040e-02  3.5576957559196231e-04  4.3289112885304008e-02  8.9462765407763933e-02  1.4248613092828169e-01  1.9056401726770114e-01  2.7452080549184760e-01  2.6027753858065200e-01  5.7862574813324952e-01  -1.4905964443680686e-01  -1.0731372931887717e-01  -6.8564981052108565e-01  -4.8946655569264819e-01  -4.5475379819001360e-01  -3.9212979006383203e-01  -3.3792001131084459e-01  -2.8511902174910470e-01  -2.3535566854635187e-01  -1.8857019559686855e-01  -1.4507568812696939e-01  -1.0511414118037546e-01  -6.8931002783228626e-02  -3.6742776099283656e-02  -8.7297110973057826e-03  1.4974410558346522e-02  3.4289325653545644e-02  4.9193403760959355e-02  5.9726552641467916e-02  6.5990993305448012e-02  6.8149976411568738e-02  6.6424584591741359e-02  6.1088823413455763e-02  5.2463264013653123e-02  4.0907534449825256e-02  2.6811998984927494e-02  1.0588956914998553e-02  -7.3362928487019051e-03  -2.6534222805482611e-02  -4.6579387243493871e-02  -6.7058042550601743e-02  -8.7574870141210584e-02  -1.0775865576591503e-01  -1.2726680917950450e-01  -1.4578866177209657e-01  -1.6304751017337932e-01  -1.7880142106414779e-01  -1.9284283942160746e-01  -2.0499708480591705e-01  -2.1511984604671927e-01  -2.2309381493969466e-01  -2.2882462654803087e-01  -2.3223628590352519e-01  -2.3326628524007254e-01  -2.3186060365762515e-01  -2.2796879815913659e-01  -2.2153936061984231e-01  -2.1251551127718152e-01  -2.0083154661599714e-01  -1.8640983342219225e-01  -1.6915847172074083e-01  -1.4896961722060742e-01  -1.2571829080398844e-01  -9.9261943530928348e-02  -6.9438567480213181e-02  -3.6072394515943448e-02  1.0532745735192402e-03  4.2088817166828184e-02  8.7544853475039139e-02  1.3667763990898449e-01  1.9342510744387589e-01  2.4526231162333156e-01  3.3619093744826611e-01  3.2206562246062354e-01  6.6472097033764643e-01  -1.0731372931887717e-01  -7.0723128688335149e-02  -7.0963937754270845e-01  -4.9998073009263649e-01  -4.7109570299295600e-01  -4.0977224242102694e-01  -3.5773287992788194e-01  -3.0682174706480458e-01  -2.5893618003948121e-01  -2.1394001260453221e-01  -1.7212649626531204e-01  -1.3369308510938746e-01  -9.8840756074670452e-02  -6.7741096948621765e-02  -4.0533103207129287e-02  -1.7315080044207846e-02  1.8605986613836605e-03  1.6991404650965165e-02  2.8126825099679367e-02  3.5368872463339925e-02  3.8870946904853543e-02  3.8835179575673007e-02  3.5508388702543664e-02  2.9176866215190108e-02  2.0160216474241408e-02  8.8045167079468523e-03  -4.5249367904761926e-03  -1.9451027712