<?xml version="1.0"?>
<VTKFile type="UnstructuredGrid"  version="0.1"  >
<UnstructuredGrid>
<Piece  NumberOfPoints="4225" NumberOfCells="8192">
<Points>
<DataArray  type="Float64"  NumberOfComponents="3"  format="ascii">-1 -1 0  -0.96875 -1 0  -0.9375 -1 0  -0.90625 -1 0  -0.875 -1 0  -0.84375 -1 0  -0.8125 -1 0  -0.78125 -1 0  -0.75 -1 0  -0.71875 -1 0  -0.6875 -1 0  -0.65625 -1 0  -0.625 -1 0  -0.59375 -1 0  -0.5625 -1 0  -0.53125 -1 0  -0.5 -1 0  -0.46875 -1 0  -0.4375 -1 0  -0.40625 -1 0  -0.375 -1 0  -0.34375 -1 0  -0.3125 -1 0  -0.28125 -1 0  -0.25 -1 0  -0.21875 -1 0  -0.1875 -1 0  -0.15625 -1 0  -0.125 -1 0  -0.09375 -1 0  -0.0625 -1 0  -0.03125 -1 0  0 -1 0  0.03125 -1 0  0.0625 -1 0  0.09375 -1 0  0.125 -1 0  0.15625 -1 0  0.1875 -1 0  0.21875 -1 0  0.25 -1 0  0.28125 -1 0  0.3125 -1 0  0.34375 -1 0  0.375 -1 0  0.40625 -1 0  0.4375 -1 0  0.46875 -1 0  0.5 -1 0  0.53125 -1 0  0.5625 -1 0  0.59375 -1 0  0.625 -1 0  0.65625 -1 0  0.6875 -1 0  0.71875 -1 0  0.75 -1 0  0.78125 -1 0  0.8125 -1 0  0.84375 -1 0  0.875 -1 0  0.90625 -1 0  0.9375 -1 0  0.96875 -1 0  1 -1 0  -1 -0.96875 0  -0.96875 -0.96875 0  -0.9375 -0.96875 0  -0.90625 -0.96875 0  -0.875 -0.96875 0  -0.84375 -0.96875 0  -0.8125 -0.96875 0  -0.78125 -0.96875 0  -0.75 -0.96875 0  -0.71875 -0.96875 0  -0.6875 -0.96875 0  -0.65625 -0.96875 0  -0.625 -0.96875 0  -0.59375 -0.96875 0  -0.5625 -0.96875 0  -0.53125 -0.96875 0  -0.5 -0.96875 0  -0.46875 -0.96875 0  -0.4375 -0.96875 0  -0.40625 -0.96875 0  -0.375 -0.96875 0  -0.34375 -0.96875 0  -0.3125 -0.96875 0  -0.28125 -0.96875 0  -0.25 -0.96875 0  -0.21875 -0.96875 0  -0.1875 -0.96875 0  -0.15625 -0.96875 0  -0.125 -0.96875 0  -0.09375 -0.96875 0  -0.0625 -0.96875 0  -0.03125 -0.96875 0  0 -0.96875 0  0.03125 -0.96875 0  0.0625 -0.96875 0  0.09375 -0.96875 0  0.125 -0.96875 0  0.15625 -0.96875 0  0.1875 -0.96875 0  0.21875 -0.96875 0  0.25 -0.96875 0  0.28125 -0.96875 0  0.3125 -0.96875 0  0.34375 -0.96875 0  0.375 -0.96875 0  0.40625 -0.96875 0  0.4375 -0.96875 0  0.46875 -0.96875 0  0.5 -0.96875 0  0.53125 -0.96875 0  0.5625 -0.96875 0  0.59375 -0.96875 0  0.625 -0.96875 0  0.65625 -0.96875 0  0.6875 -0.96875 0  0.71875 -0.96875 0  0.75 -0.96875 0  0.78125 -0.96875 0  0.8125 -0.96875 0  0.84375 -0.96875 0  0.875 -0.96875 0  0.90625 -0.96875 0  0.9375 -0.96875 0  0.96875 -0.96875 0  1 -0.96875 0  -1 -0.9375 0  -0.96875 -0.9375 0  -0.9375 -0.9375 0  -0.90625 -0.9375 0  -0.875 -0.9375 0  -0.84375 -0.9375 0  -0.8125 -0.9375 0  -0.78125 -0.9375 0  -0.75 -0.9375 0  -0.71875 -0.9375 0  -0.6875 -0.9375 0  -0.65625 -0.9375 0  -0.625 -0.9375 0  -0.59375 -0.9375 0  -0.5625 -0.9375 0  -0.53125 -0.9375 0  -0.5 -0.9375 0  -0.46875 -0.9375 0  -0.4375 -0.9375 0  -0.40625 -0.9375 0  -0.375 -0.9375 0  -0.34375 -0.9375 0  -0.3125 -0.9375 0  -0.28125 -0.9375 0  -0.25 -0.9375 0  -0.21875 -0.9375 0  -0.1875 -0.9375 0  -0.15625 -0.9375 0  -0.125 -0.9375 0  -0.09375 -0.9375 0  -0.0625 -0.9375 0  -0.03125 -0.9375 0  0 -0.9375 0  0.03125 -0.9375 0  0.0625 -0.9375 0  0.09375 -0.9375 0  0.125 -0.9375 0  0.15625 -0.9375 0  0.1875 -0.9375 0  0.21875 -0.9375 0  0.25 -0.9375 0  0.28125 -0.9375 0  0.3125 -0.9375 0  0.34375 -0.9375 0  0.375 -0.9375 0  0.40625 -0.9375 0  0.4375 -0.9375 0  0.46875 -0.9375 0  0.5 -0.9375 0  0.53125 -0.9375 0  0.5625 -0.9375 0  0.59375 -0.9375 0  0.625 -0.9375 0  0.65625 -0.9375 0  0.6875 -0.9375 0  0.71875 -0.9375 0  0.75 -0.9375 0  0.78125 -0.9375 0  0.8125 -0.9375 0  0.84375 -0.9375 0  0.875 -0.9375 0  0.90625 -0.9375 0  0.9375 -0.9375 0  0.96875 -0.9375 0  1 -0.9375 0  -1 -0.90625 0  -0.96875 -0.90625 0  -0.9375 -0.90625 0  -0.90625 -0.90625 0  -0.875 -0.90625 0  -0.84375 -0.90625 0  -0.8125 -0.90625 0  -0.78125 -0.90625 0  -0.75 -0.90625 0  -0.71875 -0.90625 0  -0.6875 -0.90625 0  -0.65625 -0.90625 0  -0.625 -0.90625 0  -0.59375 -0.90625 0  -0.5625 -0.90625 0  -0.53125 -0.90625 0  -0.5 -0.90625 0  -0.46875 -0.90625 0  -0.4375 -0.90625 0  -0.40625 -0.90625 0  -0.375 -0.90625 0  -0.34375 -0.90625 0  -0.3125 -0.90625 0  -0.28125 -0.90625 0  -0.25 -0.90625 0  -0.21875 -0.90625 0  -0.1875 -0.90625 0  -0.15625 -0.90625 0  -0.125 -0.90625 0  -0.09375 -0.90625 0  -0.0625 -0.90625 0  -0.03125 -0.90625 0  0 -0.90625 0  0.03125 -0.90625 0  0.0625 -0.90625 0  0.09375 -0.90625 0  0.125 -0.90625 0  0.15625 -0.90625 0  0.1875 -0.90625 0  0.21875 -0.90625 0  0.25 -0.90625 0  0.28125 -0.90625 0  0.3125 -0.90625 0  0.34375 -0.90625 0  0.375 -0.90625 0  0.40625 -0.90625 0  0.4375 -0.90625 0  0.46875 -0.90625 0  0.5 -0.90625 0  0.53125 -0.90625 0  0.5625 -0.90625 0  0.59375 -0.90625 0  0.625 -0.90625 0  0.65625 -0.90625 0  0.6875 -0.90625 0  0.71875 -0.90625 0  0.75 -0.90625 0  0.78125 -0.90625 0  0.8125 -0.90625 0  0.84375 -0.90625 0  0.875 -0.90625 0  0.90625 -0.90625 0  0.9375 -0.90625 0  0.96875 -0.90625 0  1 -0.90625 0  -1 -0.875 0  -0.96875 -0.875 0  -0.9375 -0.875 0  -0.90625 -0.875 0  -0.875 -0.875 0  -0.84375 -0.875 0  -0.8125 -0.875 0  -0.78125 -0.875 0  -0.75 -0.875 0  -0.71875 -0.875 0  -0.6875 -0.875 0  -0.65625 -0.875 0  -0.625 -0.875 0  -0.59375 -0.875 0  -0.5625 -0.875 0  -0.53125 -0.875 0  -0.5 -0.875 0  -0.46875 -0.875 0  -0.4375 -0.875 0  -0.40625 -0.875 0  -0.375 -0.875 0  -0.34375 -0.875 0  -0.3125 -0.875 0  -0.28125 -0.875 0  -0.25 -0.875 0  -0.21875 -0.875 0  -0.1875 -0.875 0  -0.15625 -0.875 0  -0.125 -0.875 0  -0.09375 -0.875 0  -0.0625 -0.875 0  -0.03125 -0.875 0  0 -0.875 0  0.03125 -0.875 0  0.0625 -0.875 0  0.09375 -0.875 0  0.125 -0.875 0  0.15625 -0.875 0  0.1875 -0.875 0  0.21875 -0.875 0  0.25 -0.875 0  0.28125 -0.875 0  0.3125 -0.875 0  0.34375 -0.875 0  0.375 -0.875 0  0.40625 -0.875 0  0.4375 -0.875 0  0.46875 -0.875 0  0.5 -0.875 0  0.53125 -0.875 0  0.5625 -0.875 0  0.59375 -0.875 0  0.625 -0.875 0  0.65625 -0.875 0  0.6875 -0.875 0  0.71875 -0.875 0  0.75 -0.875 0  0.78125 -0.875 0  0.8125 -0.875 0  0.84375 -0.875 0  0.875 -0.875 0  0.90625 -0.875 0  0.9375 -0.875 0  0.96875 -0.875 0  1 -0.875 0  -1 -0.84375 0  -0.96875 -0.84375 0  -0.9375 -0.84375 0  -0.90625 -0.84375 0  -0.875 -0.84375 0  -0.84375 -0.84375 0  -0.8125 -0.84375 0  -0.78125 -0.84375 0  -0.75 -0.84375 0  -0.71875 -0.84375 0  -0.6875 -0.84375 0  -0.65625 -0.84375 0  -0.625 -0.84375 0  -0.59375 -0.84375 0  -0.5625 -0.84375 0  -0.53125 -0.84375 0  -0.5 -0.84375 0  -0.46875 -0.84375 0  -0.4375 -0.84375 0  -0.40625 -0.84375 0  -0.375 -0.84375 0  -0.34375 -0.84375 0  -0.3125 -0.84375 0  -0.28125 -0.84375 0  -0.25 -0.84375 0  -0.21875 -0.84375 0  -0.1875 -0.84375 0  -0.15625 -0.84375 0  -0.125 -0.84375 0  -0.09375 -0.84375 0  -0.0625 -0.84375 0  -0.03125 -0.84375 0  0 -0.84375 0  0.03125 -0.84375 0  0.0625 -0.84375 0  0.09375 -0.84375 0  0.125 -0.84375 0  0.15625 -0.84375 0  0.1875 -0.84375 0  0.21875 -0.84375 0  0.25 -0.84375 0  0.28125 -0.84375 0  0.3125 -0.84375 0  0.34375 -0.84375 0  0.375 -0.84375 0  0.40625 -0.84375 0  0.4375 -0.84375 0  0.46875 -0.84375 0  0.5 -0.84375 0  0.53125 -0.84375 0  0.5625 -0.84375 0  0.59375 -0.84375 0  0.625 -0.84375 0  0.65625 -0.84375 0  0.6875 -0.84375 0  0.71875 -0.84375 0  0.75 -0.84375 0  0.78125 -0.84375 0  0.8125 -0.84375 0  0.84375 -0.84375 0  0.875 -0.84375 0  0.90625 -0.84375 0  0.9375 -0.84375 0  0.96875 -0.84375 0  1 -0.84375 0  -1 -0.8125 0  -0.96875 -0.8125 0  -0.9375 -0.8125 0  -0.90625 -0.8125 0  -0.875 -0.8125 0  -0.84375 -0.8125 0  -0.8125 -0.8125 0  -0.78125 -0.8125 0  -0.75 -0.8125 0  -0.71875 -0.8125 0  -0.6875 -0.8125 0  -0.65625 -0.8125 0  -0.625 -0.8125 0  -0.59375 -0.8125 0  -0.5625 -0.8125 0  -0.53125 -0.8125 0  -0.5 -0.8125 0  -0.46875 -0.8125 0  -0.4375 -0.8125 0  -0.40625 -0.8125 0  -0.375 -0.8125 0  -0.34375 -0.8125 0  -0.3125 -0.8125 0  -0.28125 -0.8125 0  -0.25 -0.8125 0  -0.21875 -0.8125 0  -0.1875 -0.8125 0  -0.15625 -0.8125 0  -0.125 -0.8125 0  -0.09375 -0.8125 0  -0.0625 -0.8125 0  -0.03125 -0.8125 0  0 -0.8125 0  0.03125 -0.8125 0  0.0625 -0.8125 0  0.09375 -0.8125 0  0.125 -0.8125 0  0.15625 -0.8125 0  0.1875 -0.8125 0  0.21875 -0.8125 0  0.25 -0.8125 0  0.28125 -0.8125 0  0.3125 -0.8125 0  0.34375 -0.8125 0  0.375 -0.8125 0  0.40625 -0.8125 0  0.4375 -0.8125 0  0.46875 -0.8125 0  0.5 -0.8125 0  0.53125 -0.8125 0  0.5625 -0.8125 0  0.59375 -0.8125 0  0.625 -0.8125 0  0.65625 -0.8125 0  0.6875 -0.8125 0  0.71875 -0.8125 0  0.75 -0.8125 0  0.78125 -0.8125 0  0.8125 -0.8125 0  0.84375 -0.8125 0  0.875 -0.8125 0  0.90625 -0.8125 0  0.9375 -0.8125 0  0.96875 -0.8125 0  1 -0.8125 0  -1 -0.78125 0  -0.96875 -0.78125 0  -0.9375 -0.78125 0  -0.90625 -0.78125 0  -0.875 -0.78125 0  -0.84375 -0.78125 0  -0.8125 -0.78125 0  -0.78125 -0.78125 0  -0.75 -0.78125 0  -0.71875 -0.78125 0  -0.6875 -0.78125 0  -0.65625 -0.78125 0  -0.625 -0.78125 0  -0.59375 -0.78125 0  -0.5625 -0.78125 0  -0.53125 -0.78125 0  -0.5 -0.78125 0  -0.46875 -0.78125 0  -0.4375 -0.78125 0  -0.40625 -0.78125 0  -0.375 -0.78125 0  -0.34375 -0.78125 0  -0.3125 -0.78125 0  -0.28125 -0.78125 0  -0.25 -0.78125 0  -0.21875 -0.78125 0  -0.1875 -0.78125 0  -0.15625 -0.78125 0  -0.125 -0.78125 0  -0.09375 -0.78125 0  -0.0625 -0.78125 0  -0.03125 -0.78125 0  0 -0.78125 0  0.03125 -0.78125 0  0.0625 -0.78125 0  0.09375 -0.78125 0  0.125 -0.78125 0  0.15625 -0.78125 0  0.1875 -0.78125 0  0.21875 -0.78125 0  0.25 -0.78125 0  0.28125 -0.78125 0  0.3125 -0.78125 0  0.34375 -0.78125 0  0.375 -0.78125 0  0.40625 -0.78125 0  0.4375 -0.78125 0  0.46875 -0.78125 0  0.5 -0.78125 0  0.53125 -0.78125 0  0.5625 -0.78125 0  0.59375 -0.78125 0  0.625 -0.78125 0  0.65625 -0.78125 0  0.6875 -0.78125 0  0.71875 -0.78125 0  0.75 -0.78125 0  0.78125 -0.78125 0  0.8125 -0.78125 0  0.84375 -0.78125 0  0.875 -0.78125 0  0.90625 -0.78125 0  0.9375 -0.78125 0  0.96875 -0.78125 0  1 -0.78125 0  -1 -0.75 0  -0.96875 -0.75 0  -0.9375 -0.75 0  -0.90625 -0.75 0  -0.875 -0.75 0  -0.84375 -0.75 0  -0.8125 -0.75 0  -0.78125 -0.75 0  -0.75 -0.75 0  -0.71875 -0.75 0  -0.6875 -0.75 0  -0.65625 -0.75 0  -0.625 -0.75 0  -0.59375 -0.75 0  -0.5625 -0.75 0  -0.53125 -0.75 0  -0.5 -0.75 0  -0.46875 -0.75 0  -0.4375 -0.75 0  -0.40625 -0.75
[...]
<PointData  Scalars="f_15"> 
<DataArray  type="Float64"  Name="f_15"  format="ascii">-4.3461460810175895e-01  -4.3043910918809131e-01  -4.1807307452869402e-01  -3.9799172390057558e-01  -3.7096677234662329e-01  -3.3803677359928802e-01  -3.0046720904307422e-01  -2.5970185597462225e-01  -2.1730730405087939e-01  -1.7491275212713664e-01  -1.3414739905868461e-01  -9.6577834502470816e-02  -6.3647835755135662e-02  -3.6622884201183349e-02  -1.6541533573064870e-02  -4.1754989136675970e-03  0.0000000000000000e+00  -4.1754989136675970e-03  -1.6541533573064895e-02  -3.6622884201183377e-02  -6.3647835755135704e-02  -9.6577834502470872e-02  -1.3414739905868472e-01  -1.7491275212713669e-01  -2.1730730405087947e-01  -2.5970185597462225e-01  -3.0046720904307417e-01  -3.3803677359928813e-01  -3.7096677234662329e-01  -3.9799172390057558e-01  -4.1807307452869402e-01  -4.3043910918809131e-01  -4.3461460810175895e-01  -4.3043910918809131e-01  -4.1807307452869402e-01  -3.9799172390057558e-01  -3.7096677234662329e-01  -3.3803677359928813e-01  -3.0046720904307417e-01  -2.5970185597462225e-01  -2.1730730405087947e-01  -1.7491275212713669e-01  -1.3414739905868472e-01  -9.6577834502470872e-02  -6.3647835755135704e-02  -3.6622884201183377e-02  -1.6541533573064895e-02  -4.1754989136675970e-03  0.0000000000000000e+00  -4.1754989136675970e-03  -1.6541533573064870e-02  -3.6622884201183349e-02  -6.3647835755135662e-02  -9.6577834502470816e-02  -1.3414739905868461e-01  -1.7491275212713664e-01  -2.1730730405087939e-01  -2.5970185597462225e-01  -3.0046720904307422e-01  -3.3803677359928802e-01  -3.7096677234662329e-01  -3.9799172390057558e-01  -4.1807307452869402e-01  -4.3043910918809131e-01  -4.3461460810175895e-01  -4.3043910918809131e-01  -3.5461039596170751e-01  -3.4752173820714016e-01  -3.2776383989218455e-01  -2.9932137487911775e-01  -2.6239968928245772e-01  -2.1842513541771391e-01  -1.6920049413303667e-01  -1.1669309089181852e-01  -6.2897653385557389e-02  -9.7441704366977942e-03  4.0967388432474793e-02  8.7614497629899576e-02  1.2878732363739431e-01  1.6331532081338349e-01  1.9028720182314729e-01  2.0906535913146737e-01  2.1929523303572421e-01  2.2090984766822577e-01  2.1412949246012572e-01  1.9945632019819615e-01  1.7766313576856604e-01  1.4977482011935664e-01  1.1703929382478950e-01  8.0882861314637400e-02  4.2842885534961093e-02  4.4713138552434284e-03  -3.2791183846041530e-02  -6.7756878630894413e-02  -9.9617217948921796e-02  -1.2801234024405012e-01  -1.5301240701274171e-01  -1.7501032548255793e-01  -1.9456147290066220e-01  -2.1222493537883386e-01  -2.2845163222844841e-01  -2.4353679193526839e-01  -2.5762597820506750e-01  -2.7074946525278398e-01  -2.8286079346369547e-01  -2.9386582888524687e-01  -3.0363994175365233e-01  -3.1203833970042533e-01  -3.1890639946764099e-01  -3.2409495564769791e-01  -3.2748164285333353e-01  -3.2899586898618755e-01  -3.2864242212639405e-01  -3.2651798556084294e-01  -3.2281543038198884e-01  -3.1781312996424022e-01  -3.1184962632859042e-01  -3.0528989465692136e-01  -2.9849355529009003e-01  -2.9181189591701157e-01  -2.8562409692624979e-01  -2.8047930925518805e-01  -2.7718436076063580e-01  -2.7711466927657208e-01  -2.8149172930937127e-01  -2.9259949524741330e-01  -3.0784515069420704e-01  -3.3576202911954545e-01  -3.4150900035119125e-01  -4.3043910918809131e-01  -4.1807307452869402e-01  -3.3288967978208189e-01  -3.5290122390190154e-01  -3.3989330898855141e-01  -3.1865119277676535e-01  -2.8853879474094202e-01  -2.5143379955844170e-01  -2.0921312198953090e-01  -1.6385293393461994e-01  -1.1731394567903543e-01  -7.1462510695486259e-02  -2.8014432466707668e-02  1.1505513983994461e-02  4.5794875282237087e-02  7.3799188079458913e-02  9.4733102774116867e-02  1.0809656699922639e-01  1.1368517476666141e-01  1.1159380828352185e-01  1.0221307721376903e-01  8.6218257594547237e-02  6.4550279123805510e-02  3.8387128987538079e-02  9.1017563114483054e-03  -2.1800482799094117e-02  -5.2773237902410848e-02  -8.2353743309568891e-02  -1.0931171653488801e-01  -1.3279376290498598e-01  -1.5241910892504343e-01  -1.6828671910249712e-01  -1.8088279035059598e-01  -1.9091686518359199e-01  -1.9914040042412001e-01  -2.0619948946104644e-01  -2.1255043482940758e-01  -2.1843984329165875e-01  -2.2393297329036016e-01  -2.2896779797469741e-01  -2.3341498571703403e-01  -2.3713071431240657e-01  -2.3999644176581802e-01  -2.4194464286412543e-01  -2.4297204120306234e-01  -2.4314235263988651e-01  -2.4258061657934965e-01  -2.4146114497519341e-01  -2.3999158001658205e-01  -2.3839579943300906e-01  -2.3689851748970336e-01  -2.3571402866381180e-01  -2.3504080524162638e-01  -2.3506481009335362e-01  -2.3597227970172135e-01  -2.3798536301349429e-01  -2.4140399956669975e-01  -2.4671908502618081e-01  -2.5458813238292960e-01  -2.6611087230024277e-01  -2.8180934150964815e-01  -3.0319194036190872e-01  -3.2539076958204882e-01  -3.5547862470565095e-01  -3.5124749946536210e-01  -4.1807307452869402e-01  -3.9799172390057558e-01  -3.0841996721443982e-01  -3.2703247710355510e-01  -3.1350242095616204e-01  -2.9434578415625945e-01  -2.6604613103020164e-01  -2.3057231162470665e-01  -1.8956603238302777e-01  -1.4490158914269879e-01  -9.8511807724264489e-02  -5.2290126738050599e-02  -8.0104947640194085e-03  3.2731629599494674e-02  6.8561835133627472e-02  9.8357456406452479e-02  1.2126987497967001e-01  1.3674047410172691e-01  1.4451120452293398e-01  1.4463001745290036e-01  1.3745083453985646e-01  1.2362685823842390e-01  1.0409445186673449e-01  8.0042427437255217e-02  5.2859053279219352e-02  2.4048506042549871e-02  -4.8869141236592461e-03  -3.2590499220665529e-02  -5.7995613624023598e-02  -8.0433262445083489e-02  -9.9668144933891145e-02  -1.1585062819468810e-01  -1.2940241318955556e-01  -1.4087465562722454e-01  -1.5081859282631888e-01  -1.5969438098335750e-01  -1.6782548420710558e-01  -1.7539245599716968e-01  -1.8245360991293305e-01  -1.8897931676069002e-01  -1.9488914812656022e-01  -2.0008492926614005e-01  -2.0447647498980193e-01  -2.0799954330797654e-01  -2.1062702423180588e-01  -2.1237489604667162e-01  -2.1330437989074483e-01  -2.1352143464028403e-01  -2.1317437908272674e-01  -2.1245022474912154e-01  -2.1157013179869127e-01  -2.1078474818285872e-01  -2.1037023266560323e-01  -2.1062844596722402e-01  -2.1189151966421207e-01  -2.1454665130839934e-01  -2.1905312753487916e-01  -2.2603592335534139e-01  -2.3616564245640351e-01  -2.5044373008457543e-01  -2.6876470462576785e-01  -2.9215154766195262e-01  -3.1342780367832401e-01  -3.4119191252702591e-01  -3.2672253115857008e-01  -3.9799172390057558e-01  -3.7096677234662329e-01  -2.8981888127381411e-01  -3.0377167683929723e-01  -2.9130417278257681e-01  -2.7348967704964855e-01  -2.4755096093332388e-01  -2.1525585984861509e-01  -1.7789666501622500e-01  -1.3710184700453487e-01  -9.4599253544856557e-02  -5.2125265797119277e-02  -1.1334309814289616e-02  2.6272455969654895e-02  5.9400639135002403e-02  8.7001039286517368e-02  1.0829636005202907e-01  1.2279888907362378e-01  1.3032062703728561e-01  1.3097616115070143e-01  1.2517729084964704e-01  1.1361704798546547e-01  9.7239150563260060e-02  7.7187818610480172e-02  5.4733423129695709e-02  3.1173527101704356e-02  7.7171277077662049e-03  -1.4629680550119026e-02  -3.5151464215009004e-02  -5.3462046532381312e-02  -6.9484929537034973e-02  -8.3385051999589649e-02  -9.5475010607531038e-02  -1.0612146209832263e-01  -1.1567034762897105e-01  -1.2439906611636486e-01  -1.3249502069853944e-01  -1.4005518723926955e-01  -1.4709973157499046e-01  -1.5359311026159156e-01  -1.5946734366748574e-01  -1.6464383999991411e-01  -1.6905171627943893e-01  -1.7264189471235314e-01  -1.7539705039275486e-01  -1.7733794170173839e-01  -1.7852673134808930e-01  -1.7906794435416923e-01  -1.7910764554326383e-01  -1.7883148529251994e-01  -1.7846224797141449e-01  -1.7825794072927523e-01  -1.7851116690182198e-01  -1.7955325202529077e-01  -1.8176102836023150e-01  -1.8558366248164473e-01  -1.9154669655882475e-01  -2.0034184653990583e-01  -2.1260651514680529e-01  -2.2925129656840798e-01  -2.4953574963396008e-01  -2.7425581922122161e-01  -2.9409984456715499e-01  -3.2056473302129179e-01  -2.9889130538871600e-01  -3.7096677234662329e-01  -3.3803677359928802e-01  -2.7789576620113071e-01  -2.8299168788068924e-01  -2.6849297295429631e-01  -2.4939116280246856e-01  -2.2377390093771501e-01  -1.9277256361657585e-01  -1.5739090775597045e-01  -1.1896409307055229e-01  -7.8958275697891794e-02  -3.8899841825580213e-02  -2.8577122384228822e-04  3.5493560263048916e-02  6.7218119330804349e-02  9.3887342176963706e-02  1.1475569312953290e-01  1.2935626572104553e-01  1.3751367216247967e-01  1.3934638097856417e-01  1.3525736862702853e-01  1.2591059032028037e-01  1.1219007050712851e-01  9.5139012634190806e-02  7.5879304572617698e-02  5.5517212739710810e-02  3.5047666409111687e-02  1.5274069356157318e-02  -3.2403228709393600e-03  -2.0180875972537038e-02  -3.5452474184166707e-02  -4.9124974816242575e-02  -6.1369293177514550e-02  -7.2398032338720261e-02  -8.2419157241515287e-02  -9.1605601945586188e-02  -1.0007992072996492e-01  -1.0791113015947189e-01  -1.1512036998050180e-01  -1.2169204082849680e-01  -1.2758757373624427e-01  -1.3275954512323723e-01  -1.3716464105095766e-01  -1.4077459659877656e-01  -1.4358485497278545e-01  -1.4562098012536071e-01  -1.4694312578456084e-01  -1.4764887537524915e-01  -1.4787486442372211e-01  -1.4779757643234359e-01  -1.4763379374943975e-01  -1.4764156325389238e-01  -1.4812220543318289e-01  -1.4942702473848851e-01  -1.5196490089107603e-01  -1.5623138953824708e-01  -1.6279959657381052e-01  -1.7241229972976413e-01  -1.8564806769836434e-01  -2.0333296510318785e-01  -2.2406152149609398e-01  -2.4866745240701896e-01  -2.6572901435187551e-01  -2.9080209884825831e-01  -2.6128224991966026e-01  -3.3803677359928802e-01  -3.0046720904307422e-01  -2.7231775426112226e-01  -2.6687148364920382e-01  -2.4977893607202761e-01  -2.2877743028774297e-01  -2.0271562574902235e-01  -1.7238755174585485e-01  -1.3861010217980496e-01  -1.0245211502551609e-01  -6.5122169805946928e-02  -2.7905841580876188e-02  7.9128245122960447e-03  4.1123210905003676e-02  7.0651956494006268e-02  9.5615099032831552e-02  1.1535720445327544e-01  1.2947728287206001e-01  1.3784153564186624e-01  1.4058264310155744e-01  1.3808466083655740e-01  1.3095230709936678e-01  1.1996394110960341e-01  1.0600943973665164e-01  9.0017368170715081e-02  7.2879572673587856e-02  5.5383894729336955e-02  3.8165448210016779e-02  2.1683153931175394e-02  6.2221910764008763e-03  -8.0827676615315407e-03  -2.1212036980226452e-02  -3.3221774525158503e-02  -4.4207853431087553e-02  -5.4276575100225245e-02  -6.3523741015590662e-02  -7.2022002971209864e-02  -7.9815591263276836e-02  -8.6920992605689293e-02  -9.3331990383305766e-02  -9.9027396027762796e-02  -1.0398003618263442e-01  -1.0816580186400460e-01  -1.1157201218152574e-01  -1.1420463160058729e-01  -1.1609423148489492e-01  -1.1730070226002449e-01  -1.1791691712078430e-01  -1.1807154307480737e-01  -1.1793138017317630e-01  -1.1770357951049351e-01  -1.1763869070894825e-01  -1.1803483258784569e-01  -1.1924710187319849e-01  -1.2169637967810988e-01  -1.2590216910130123e-01  -1.3245997037486568e-01  -1.4214154149446073e-01  -1.5543809967465477e-01  -1.7311170418230462e-01  -1.9310319942196763e-01  -2.1660560535408147e-01  -2.3010119682827399e-01  -2.5410766683625585e-01  -2.1682711413955141e-01  -3.0046720904307422e-01  -2.5970185597462225e-01  -2.7174144118471105e-01  -2.5522738837051634e-01  -2.3543751240550276e-01  -2.1216884375527634e-01  -1.8514750468875366e-01  -1.5491248593087398e-01  -1.2211350663851649e-01  -8.7610367134164785e-02  -5.2393848600862977e-02  -1.7529156891005222e-02  1.5907372392760605e-02  4.6890082099307985e-02  7.4501638324302927e-02  9.7982386500842289e-02  1.1676884869097313e-01  1.3051962463400918e-01  1.3912761584667305e-01  1.4271783698236060e-01  1.4163037153143668e-01  1.3638865343505455e-01  1.2765446965030344e-01  1.1617297081082728e-01  1.0271308878118103e-01  8.8010373245529086e-02  7.2719427416373952e-02  5.7381480933346843e-02  4.2409505524770442e-02  2.8089794063489795e-02  1.4596229903859970e-02  2.0122792978164309e-03  -9.6440678786137764e-03  -2.0396140194139843e-02  -3.0287679995144468e-02  -3.9366545724193090e-02  -4.7673519167389232e-02  -5.5236091024344826e-02  -6.2066643624575681e-02  -6.8164151721638117e-02  -7.3518384510547680e-02  -7.8115602931044983e-02  -8.1944891358617766e-02  -8.5004474268433036e-02  -8.7307601519892503e-02  -8.8887791055399804e-02  -8.9803381747432368e-02  -9.0141461464661801e-02  -9.0021340750725792e-02  -8.9597857365000561e-02  -8.9064880519461376e-02  -8.8659944014561315e-02  -8.8670206374484542e-02  -8.9444216408412283e-02  -9.1401707386695133e-02  -9.5070429325710998e-02  -1.0104921680147860e-01  -1.1012221948222096e-01  -1.2267453112730230e-01  -1.3944122512926838e-01  -1.5774661235630308e-01  -1.7945071929064554e-01  -1.8889379873963863e-01  -2.1226577734740945e-01  -1.6711282369976446e-01  -2.5970185597462225e-01  -2.1730730405087939e-01  -2.7458651074258716e-01  -2.4718770757392480e-01  -2.2512622238604615e-01  -1.9977975401623282e-01  -1.7181497682979019e-01  -1.4154084216062779e-01  -1.0949495136463719e-01  -7.6382178263695075e-02  -4.3018027290999877e-02  -1.0280954293483207e-02  2.0939649955754151e-02  4.9795225312977982e-02  7.5526713154775410e-02  9.7506949700545534e-02  1.1527407376937530e-01  1.2855379189270319e-01  1.3726907463791499e-01  1.4153654101088786e-01  1.4164965205766955e-01  1.3804980810164957e-01  1.3128774006063768e-01  1.2197883754072102e-01  1.1075712622464555e-01  9.8232881400803412e-02  8.4958270743549863e-02  7.1403872950653438e-02  5.7946967964452201e-02  4.4870619745365534e-02  3.2371280536282125e-02  2.0572077007426141e-02  9.5389708338396075e-03  -7.0257675011259064e-04  -1.0152260435015010e-02  -1.8822113266687070e-02  -2.6726917186587078e-02  -3.3878028023094163e-02  -4.0280454380594570e-02  -4.5932703765359205e-02  -5.0828785003214340e-02  -5.4961669627784406e-02  -5.8327611635690647e-02  -6.0930799429275102e-02  -6.2788008612573526e-02  -6.3933020120283596e-02  -6.4420745666537868e-02  -6.4331070289903064e-02  -6.3772559096314935e-02  -6.2886288737339965e-02  -6.1850172255566306e-02  -6.0884738204973414e-02  -6.0260452595105658e-02  -6.0311456209745769e-02  -6.1445995781637799e-02  -6.4187246326916650e-02  -6.9122000924946775e-02  -7.7034815040744789e-02  -8.8197512833828443e-02  -1.0336732922993638e-01  -1.1930949132654622e-01  -1.3881465952705624e-01  -1.4400740007049176e-01  -1.6724156115145636e-01  -1.1417333004234026e-01  -2.1730730405087939e-01  -1.7491275212713664e-01  -2.7956190433669925e-01  -2.4181646473193205e-01  -2.1807551337888789e-01  -1.9096865067812216e-01  -1.6221194289031110e-01  -1.3190023479809782e-01  -1.0049013205764507e-01  -6.8560877615767846e-02  -3.6785607055941145e-02  -5.8877352695732351e-03  2.3402811713788805e-02  5.0392255546527251e-02  7.4462749273019282e-02  9.5106937841853714e-02  1.1195503956243402e-01  1.2479258631144968e-01  1.3356753937254495e-01  1.3838628967149305e-01  1.3949890984853158e-01  1.3727504591227724e-01  1.3217277094782395e-01  1.2470355778323644e-01  1.1539691329962487e-01  1.0476814769976102e-01  9.3292070143872322e-02  8.1384364923943700e-02  6.9391177066230172e-02  5.7586356122717168e-02  4.6175018921662085e-02  3.5301673488436186e-02  2.5061066099807711e-02  1.5510048679670117e-02  6.6790724446973097e-03  -1.4177439163360257e-03  -8.7746188561031793e-03  -1.5388502882238824e-02  -2.1255845468245511e-02  -2.6371510709392941e-02  -3.0729442468122804e-02  -3.4324648230270399e-02  -3.7156049593109156e-02  -3.9229844856810601e-02  -4.0563082096139680e-02  -4.1187286084704587e-02  -4.1152040719082281e-02  -4.0528567163930822e-02  -3.9413402294765872e-02  -3.7932471020920788e-02  -3.6245894642706153e-02  -3.4554559824669047e-02  -3.3108412317993927e-02  -3.2221713846394592e-02  -3.2283802362603996e-02  -3.3803628557176238e-02  -3.7345162504619375e-02  -4.3686527947091477e-02  -5.2991353299280931e-02  -6.6092104273052066e-02  -7.9264580105337781e-02  -9.6422815147468657e-02  -9.7396332511528669e-02  -1.2098694348318380e-01  -6.0000258262560661e-02  -1.7491275212713664e-01  -1.3414739905868461e-01  -2.8580579719104487e-01  -2.3838572756191329e-01  -2.1354608767531830e-01  -1.8500750211547340e-01  -1.5565119424359253e-01  -1.2536186265234622e-01  -9.4539768837145863e-02  -6.3661846003819619e-02  -3.3284480981526803e-02  -4.0017475869843118e-03  2.3590931440825472e-02  4.8931871055938485e-02  7.1525205114585655e-02  9.0968270268817472e-02  1.0697264519322343e-01  1.1937747157063901e-01  1.2815418437421969e-01  1.3340241299422231e-01  1.3533757691231302e-01  1.3427145003007598e-01  1.3058765606097361e-01  1.2471451437582021e-01  1.1709783305924605e-01  1.0817605006010197e-01  9.8359637951030185e-02  8.8015969111405232e-02  7.7460072905551292e-02  6.6951008686678332e-02  5.6693047228659879e-02  4.6840523363476695e-02  3.7505093397938172e-02  2.8764171798469840e-02  2.0669472837821314e-02  1.3254819452009762e-02  6.5426366145936582e-03  5.4881647540281969e-04  -4.7141361117078954e-03  -9.2355757184121381e-03  -1.3006590592290031e-02  -1.6020985989886376e-02  -1.8277089014454337e-02  -1.9780098325047551e-02  -2.0544780514398918e-02  -2.0598363108739092e-02  -1.9983577713925033e-02  -1.8761874263695057e-02  -1.7016942532633864e-02  -1.4858817618677600e-02  -1.2428945839248766e-02  -9.9072294326934957e-03  -7.5209873798362196e-03  -5.5612641254425511e-03  -4.3937652698002776e-03  -4.5066224198220695e-03  -6.4349247247161116e-03  -1.0947811704945465e-02  -1.8116218804698447e-02  -2.8894850457944807e-02  -3.9145163502266302e-02  -5.4009984188325574e-02  -5.0970825210216703e-02  -7.5365091254756711e-02  -6.5196345850293312e-03  -1.3414739905868461e-01  -9.6577834502470816e-02  -2.9278492928053201e-01  -2.3639717528539936e-01  -2.1093484868713480e-01  -1.8123345310282682e-01  -1.5143235458024662e-01  -1.2120904685726146e-01  -9.0928940349725693e-02  -6.0983507350307643e-02  -3.1831186301789209e-02  -3.9568089457697733e-03  2.2157897878885096e-02  4.6062986369431805e-02  6.7365842507438503e-02  8.5752535217697046e-02  1.0100380665511693e-01  1.1300478934581998e-01  1.2174791983306395e-01  1.2732901858593496e-01  1.2993706622499016e-01  1.2983874469000545e-01  1.2735926941121559e-01  1.2286131879406960e-01  1.1672393893985089e-01  1.0932314490250848e-01  1.0101558469307899e-01  9.2126157711540396e-02  8.2939950951953639e-02  7.3698381018283077e-02  6.4599033293472441e-02  5.5798439465464172e-02  4.7416900067987988e-02  3.9544460548908179e-02  3.2247225547005987e-02  2.5573353987527775e-02  1.9558248779373861e-02  1.4228650324616912e-02  9.6055051353392575e-03  5.7056292033052357e-03  2.5422799456465924e-03  1.2481343497107604e-04  -1.5423784060890403e-03  -2.4614673284670870e-03  -2.6431753944249638e-03  -2.1090538110985486e-03  -8.9402104288805687e-04  9.5079210943785656e-04  3.3547510471419804e-03  6.2236841036323130e-03  9.4347262605365741e-03  1.2829012378191031e-02  1.6202299795276497e-02  1.9288003901110084e-02  2.1746083737703016e-02  2.3112722349102114e-02  2.2883181279041803e-02  2.0296957881433965e-02  1.5353102632095420e-02  6.9430698127017233e-03  -4.5662706295387299e-04  -1.3230054955533376e-02  -6.5164210197914407e-03  -3.2091148017040348e-02  4.4477014402441596e-02  -9.6577834502470816e-02  -6.3647835755135662e-02  -3.0012532317135959e-01  -2.3551401741359765e-01  -2.0976535031976518e-01  -1.7909786340010952e-01  -1.4895908707099867e-01  -1.1882075152082711e-01  -8.9030307393038202e-02  -5.9906799257194082e-02  -3.1825795669825387e-02  -5.1790464394067103e-03  1.9648450224459563e-02  4.2301564001085236e-02  6.2475109104701644e-02  7.9930285846592827e-02  9.4506648427964760e-02  1.0612901888102778e-01  1.1480906232258122e-01  1.2064162254298648e-01  1.2379630207986449e-01  1.2450516232394027e-01  1.2304769884879969e-01  1.1973443758593205e-01  1.1489051389138408e-01  1.0884048083786736e-01  1.0189534333204320e-01  9.43