<?xml version="1.0"?>
<VTKFile type="UnstructuredGrid"  version="0.1"  >
<UnstructuredGrid>
<Piece  NumberOfPoints="4225" NumberOfCells="8192">
<Points>
<DataArray  type="Float64"  NumberOfComponents="3"  format="ascii">-1 -1 0  -0.96875 -1 0  -0.9375 -1 0  -0.90625 -1 0  -0.875 -1 0  -0.84375 -1 0  -0.8125 -1 0  -0.78125 -1 0  -0.75 -1 0  -0.71875 -1 0  -0.6875 -1 0  -0.65625 -1 0  -0.625 -1 0  -0.59375 -1 0  -0.5625 -1 0  -0.53125 -1 0  -0.5 -1 0  -0.46875 -1 0  -0.4375 -1 0  -0.40625 -1 0  -0.375 -1 0  -0.34375 -1 0  -0.3125 -1 0  -0.28125 -1 0  -0.25 -1 0  -0.21875 -1 0  -0.1875 -1 0  -0.15625 -1 0  -0.125 -1 0  -0.09375 -1 0  -0.0625 -1 0  -0.03125 -1 0  0 -1 0  0.03125 -1 0  0.0625 -1 0  0.09375 -1 0  0.125 -1 0  0.15625 -1 0  0.1875 -1 0  0.21875 -1 0  0.25 -1 0  0.28125 -1 0  0.3125 -1 0  0.34375 -1 0  0.375 -1 0  0.40625 -1 0  0.4375 -1 0  0.46875 -1 0  0.5 -1 0  0.53125 -1 0  0.5625 -1 0  0.59375 -1 0  0.625 -1 0  0.65625 -1 0  0.6875 -1 0  0.71875 -1 0  0.75 -1 0  0.78125 -1 0  0.8125 -1 0  0.84375 -1 0  0.875 -1 0  0.90625 -1 0  0.9375 -1 0  0.96875 -1 0  1 -1 0  -1 -0.96875 0  -0.96875 -0.96875 0  -0.9375 -0.96875 0  -0.90625 -0.96875 0  -0.875 -0.96875 0  -0.84375 -0.96875 0  -0.8125 -0.96875 0  -0.78125 -0.96875 0  -0.75 -0.96875 0  -0.71875 -0.96875 0  -0.6875 -0.96875 0  -0.65625 -0.96875 0  -0.625 -0.96875 0  -0.59375 -0.96875 0  -0.5625 -0.96875 0  -0.53125 -0.96875 0  -0.5 -0.96875 0  -0.46875 -0.96875 0  -0.4375 -0.96875 0  -0.40625 -0.96875 0  -0.375 -0.96875 0  -0.34375 -0.96875 0  -0.3125 -0.96875 0  -0.28125 -0.96875 0  -0.25 -0.96875 0  -0.21875 -0.96875 0  -0.1875 -0.96875 0  -0.15625 -0.96875 0  -0.125 -0.96875 0  -0.09375 -0.96875 0  -0.0625 -0.96875 0  -0.03125 -0.96875 0  0 -0.96875 0  0.03125 -0.96875 0  0.0625 -0.96875 0  0.09375 -0.96875 0  0.125 -0.96875 0  0.15625 -0.96875 0  0.1875 -0.96875 0  0.21875 -0.96875 0  0.25 -0.96875 0  0.28125 -0.96875 0  0.3125 -0.96875 0  0.34375 -0.96875 0  0.375 -0.96875 0  0.40625 -0.96875 0  0.4375 -0.96875 0  0.46875 -0.96875 0  0.5 -0.96875 0  0.53125 -0.96875 0  0.5625 -0.96875 0  0.59375 -0.96875 0  0.625 -0.96875 0  0.65625 -0.96875 0  0.6875 -0.96875 0  0.71875 -0.96875 0  0.75 -0.96875 0  0.78125 -0.96875 0  0.8125 -0.96875 0  0.84375 -0.96875 0  0.875 -0.96875 0  0.90625 -0.96875 0  0.9375 -0.96875 0  0.96875 -0.96875 0  1 -0.96875 0  -1 -0.9375 0  -0.96875 -0.9375 0  -0.9375 -0.9375 0  -0.90625 -0.9375 0  -0.875 -0.9375 0  -0.84375 -0.9375 0  -0.8125 -0.9375 0  -0.78125 -0.9375 0  -0.75 -0.9375 0  -0.71875 -0.9375 0  -0.6875 -0.9375 0  -0.65625 -0.9375 0  -0.625 -0.9375 0  -0.59375 -0.9375 0  -0.5625 -0.9375 0  -0.53125 -0.9375 0  -0.5 -0.9375 0  -0.46875 -0.9375 0  -0.4375 -0.9375 0  -0.40625 -0.9375 0  -0.375 -0.9375 0  -0.34375 -0.9375 0  -0.3125 -0.9375 0  -0.28125 -0.9375 0  -0.25 -0.9375 0  -0.21875 -0.9375 0  -0.1875 -0.9375 0  -0.15625 -0.9375 0  -0.125 -0.9375 0  -0.09375 -0.9375 0  -0.0625 -0.9375 0  -0.03125 -0.9375 0  0 -0.9375 0  0.03125 -0.9375 0  0.0625 -0.9375 0  0.09375 -0.9375 0  0.125 -0.9375 0  0.15625 -0.9375 0  0.1875 -0.9375 0  0.21875 -0.9375 0  0.25 -0.9375 0  0.28125 -0.9375 0  0.3125 -0.9375 0  0.34375 -0.9375 0  0.375 -0.9375 0  0.40625 -0.9375 0  0.4375 -0.9375 0  0.46875 -0.9375 0  0.5 -0.9375 0  0.53125 -0.9375 0  0.5625 -0.9375 0  0.59375 -0.9375 0  0.625 -0.9375 0  0.65625 -0.9375 0  0.6875 -0.9375 0  0.71875 -0.9375 0  0.75 -0.9375 0  0.78125 -0.9375 0  0.8125 -0.9375 0  0.84375 -0.9375 0  0.875 -0.9375 0  0.90625 -0.9375 0  0.9375 -0.9375 0  0.96875 -0.9375 0  1 -0.9375 0  -1 -0.90625 0  -0.96875 -0.90625 0  -0.9375 -0.90625 0  -0.90625 -0.90625 0  -0.875 -0.90625 0  -0.84375 -0.90625 0  -0.8125 -0.90625 0  -0.78125 -0.90625 0  -0.75 -0.90625 0  -0.71875 -0.90625 0  -0.6875 -0.90625 0  -0.65625 -0.90625 0  -0.625 -0.90625 0  -0.59375 -0.90625 0  -0.5625 -0.90625 0  -0.53125 -0.90625 0  -0.5 -0.90625 0  -0.46875 -0.90625 0  -0.4375 -0.90625 0  -0.40625 -0.90625 0  -0.375 -0.90625 0  -0.34375 -0.90625 0  -0.3125 -0.90625 0  -0.28125 -0.90625 0  -0.25 -0.90625 0  -0.21875 -0.90625 0  -0.1875 -0.90625 0  -0.15625 -0.90625 0  -0.125 -0.90625 0  -0.09375 -0.90625 0  -0.0625 -0.90625 0  -0.03125 -0.90625 0  0 -0.90625 0  0.03125 -0.90625 0  0.0625 -0.90625 0  0.09375 -0.90625 0  0.125 -0.90625 0  0.15625 -0.90625 0  0.1875 -0.90625 0  0.21875 -0.90625 0  0.25 -0.90625 0  0.28125 -0.90625 0  0.3125 -0.90625 0  0.34375 -0.90625 0  0.375 -0.90625 0  0.40625 -0.90625 0  0.4375 -0.90625 0  0.46875 -0.90625 0  0.5 -0.90625 0  0.53125 -0.90625 0  0.5625 -0.90625 0  0.59375 -0.90625 0  0.625 -0.90625 0  0.65625 -0.90625 0  0.6875 -0.90625 0  0.71875 -0.90625 0  0.75 -0.90625 0  0.78125 -0.90625 0  0.8125 -0.90625 0  0.84375 -0.90625 0  0.875 -0.90625 0  0.90625 -0.90625 0  0.9375 -0.90625 0  0.96875 -0.90625 0  1 -0.90625 0  -1 -0.875 0  -0.96875 -0.875 0  -0.9375 -0.875 0  -0.90625 -0.875 0  -0.875 -0.875 0  -0.84375 -0.875 0  -0.8125 -0.875 0  -0.78125 -0.875 0  -0.75 -0.875 0  -0.71875 -0.875 0  -0.6875 -0.875 0  -0.65625 -0.875 0  -0.625 -0.875 0  -0.59375 -0.875 0  -0.5625 -0.875 0  -0.53125 -0.875 0  -0.5 -0.875 0  -0.46875 -0.875 0  -0.4375 -0.875 0  -0.40625 -0.875 0  -0.375 -0.875 0  -0.34375 -0.875 0  -0.3125 -0.875 0  -0.28125 -0.875 0  -0.25 -0.875 0  -0.21875 -0.875 0  -0.1875 -0.875 0  -0.15625 -0.875 0  -0.125 -0.875 0  -0.09375 -0.875 0  -0.0625 -0.875 0  -0.03125 -0.875 0  0 -0.875 0  0.03125 -0.875 0  0.0625 -0.875 0  0.09375 -0.875 0  0.125 -0.875 0  0.15625 -0.875 0  0.1875 -0.875 0  0.21875 -0.875 0  0.25 -0.875 0  0.28125 -0.875 0  0.3125 -0.875 0  0.34375 -0.875 0  0.375 -0.875 0  0.40625 -0.875 0  0.4375 -0.875 0  0.46875 -0.875 0  0.5 -0.875 0  0.53125 -0.875 0  0.5625 -0.875 0  0.59375 -0.875 0  0.625 -0.875 0  0.65625 -0.875 0  0.6875 -0.875 0  0.71875 -0.875 0  0.75 -0.875 0  0.78125 -0.875 0  0.8125 -0.875 0  0.84375 -0.875 0  0.875 -0.875 0  0.90625 -0.875 0  0.9375 -0.875 0  0.96875 -0.875 0  1 -0.875 0  -1 -0.84375 0  -0.96875 -0.84375 0  -0.9375 -0.84375 0  -0.90625 -0.84375 0  -0.875 -0.84375 0  -0.84375 -0.84375 0  -0.8125 -0.84375 0  -0.78125 -0.84375 0  -0.75 -0.84375 0  -0.71875 -0.84375 0  -0.6875 -0.84375 0  -0.65625 -0.84375 0  -0.625 -0.84375 0  -0.59375 -0.84375 0  -0.5625 -0.84375 0  -0.53125 -0.84375 0  -0.5 -0.84375 0  -0.46875 -0.84375 0  -0.4375 -0.84375 0  -0.40625 -0.84375 0  -0.375 -0.84375 0  -0.34375 -0.84375 0  -0.3125 -0.84375 0  -0.28125 -0.84375 0  -0.25 -0.84375 0  -0.21875 -0.84375 0  -0.1875 -0.84375 0  -0.15625 -0.84375 0  -0.125 -0.84375 0  -0.09375 -0.84375 0  -0.0625 -0.84375 0  -0.03125 -0.84375 0  0 -0.84375 0  0.03125 -0.84375 0  0.0625 -0.84375 0  0.09375 -0.84375 0  0.125 -0.84375 0  0.15625 -0.84375 0  0.1875 -0.84375 0  0.21875 -0.84375 0  0.25 -0.84375 0  0.28125 -0.84375 0  0.3125 -0.84375 0  0.34375 -0.84375 0  0.375 -0.84375 0  0.40625 -0.84375 0  0.4375 -0.84375 0  0.46875 -0.84375 0  0.5 -0.84375 0  0.53125 -0.84375 0  0.5625 -0.84375 0  0.59375 -0.84375 0  0.625 -0.84375 0  0.65625 -0.84375 0  0.6875 -0.84375 0  0.71875 -0.84375 0  0.75 -0.84375 0  0.78125 -0.84375 0  0.8125 -0.84375 0  0.84375 -0.84375 0  0.875 -0.84375 0  0.90625 -0.84375 0  0.9375 -0.84375 0  0.96875 -0.84375 0  1 -0.84375 0  -1 -0.8125 0  -0.96875 -0.8125 0  -0.9375 -0.8125 0  -0.90625 -0.8125 0  -0.875 -0.8125 0  -0.84375 -0.8125 0  -0.8125 -0.8125 0  -0.78125 -0.8125 0  -0.75 -0.8125 0  -0.71875 -0.8125 0  -0.6875 -0.8125 0  -0.65625 -0.8125 0  -0.625 -0.8125 0  -0.59375 -0.8125 0  -0.5625 -0.8125 0  -0.53125 -0.8125 0  -0.5 -0.8125 0  -0.46875 -0.8125 0  -0.4375 -0.8125 0  -0.40625 -0.8125 0  -0.375 -0.8125 0  -0.34375 -0.8125 0  -0.3125 -0.8125 0  -0.28125 -0.8125 0  -0.25 -0.8125 0  -0.21875 -0.8125 0  -0.1875 -0.8125 0  -0.15625 -0.8125 0  -0.125 -0.8125 0  -0.09375 -0.8125 0  -0.0625 -0.8125 0  -0.03125 -0.8125 0  0 -0.8125 0  0.03125 -0.8125 0  0.0625 -0.8125 0  0.09375 -0.8125 0  0.125 -0.8125 0  0.15625 -0.8125 0  0.1875 -0.8125 0  0.21875 -0.8125 0  0.25 -0.8125 0  0.28125 -0.8125 0  0.3125 -0.8125 0  0.34375 -0.8125 0  0.375 -0.8125 0  0.40625 -0.8125 0  0.4375 -0.8125 0  0.46875 -0.8125 0  0.5 -0.8125 0  0.53125 -0.8125 0  0.5625 -0.8125 0  0.59375 -0.8125 0  0.625 -0.8125 0  0.65625 -0.8125 0  0.6875 -0.8125 0  0.71875 -0.8125 0  0.75 -0.8125 0  0.78125 -0.8125 0  0.8125 -0.8125 0  0.84375 -0.8125 0  0.875 -0.8125 0  0.90625 -0.8125 0  0.9375 -0.8125 0  0.96875 -0.8125 0  1 -0.8125 0  -1 -0.78125 0  -0.96875 -0.78125 0  -0.9375 -0.78125 0  -0.90625 -0.78125 0  -0.875 -0.78125 0  -0.84375 -0.78125 0  -0.8125 -0.78125 0  -0.78125 -0.78125 0  -0.75 -0.78125 0  -0.71875 -0.78125 0  -0.6875 -0.78125 0  -0.65625 -0.78125 0  -0.625 -0.78125 0  -0.59375 -0.78125 0  -0.5625 -0.78125 0  -0.53125 -0.78125 0  -0.5 -0.78125 0  -0.46875 -0.78125 0  -0.4375 -0.78125 0  -0.40625 -0.78125 0  -0.375 -0.78125 0  -0.34375 -0.78125 0  -0.3125 -0.78125 0  -0.28125 -0.78125 0  -0.25 -0.78125 0  -0.21875 -0.78125 0  -0.1875 -0.78125 0  -0.15625 -0.78125 0  -0.125 -0.78125 0  -0.09375 -0.78125 0  -0.0625 -0.78125 0  -0.03125 -0.78125 0  0 -0.78125 0  0.03125 -0.78125 0  0.0625 -0.78125 0  0.09375 -0.78125 0  0.125 -0.78125 0  0.15625 -0.78125 0  0.1875 -0.78125 0  0.21875 -0.78125 0  0.25 -0.78125 0  0.28125 -0.78125 0  0.3125 -0.78125 0  0.34375 -0.78125 0  0.375 -0.78125 0  0.40625 -0.78125 0  0.4375 -0.78125 0  0.46875 -0.78125 0  0.5 -0.78125 0  0.53125 -0.78125 0  0.5625 -0.78125 0  0.59375 -0.78125 0  0.625 -0.78125 0  0.65625 -0.78125 0  0.6875 -0.78125 0  0.71875 -0.78125 0  0.75 -0.78125 0  0.78125 -0.78125 0  0.8125 -0.78125 0  0.84375 -0.78125 0  0.875 -0.78125 0  0.90625 -0.78125 0  0.9375 -0.78125 0  0.96875 -0.78125 0  1 -0.78125 0  -1 -0.75 0  -0.96875 -0.75 0  -0.9375 -0.75 0  -0.90625 -0.75 0  -0.875 -0.75 0  -0.84375 -0.75 0  -0.8125 -0.75 0  -0.78125 -0.75 0  -0.75 -0.75 0  -0.71875 -0.75 0  -0.6875 -0.75 0  -0.65625 -0.75 0  -0.625 -0.75 0  -0.59375 -0.75 0  -0.5625 -0.75 0  -0.53125 -0.75 0  -0.5 -0.75 0  -0.46875 -0.75 0  -0.4375 -0.75 0  -0.40625 -0.75
[...]
<PointData  Scalars="f_15"> 
<DataArray  type="Float64"  Name="f_15"  format="ascii">-4.7292814568528618e-01  -4.6838455483090469e-01  -4.5492838991621881e-01  -4.3307676381259630e-01  -4.0366942225666558e-01  -3.6783647289259430e-01  -3.2695495586909440e-01  -2.8259592495875951e-01  -2.3646407284264304e-01  -1.9033222072652653e-01  -1.4597318981619167e-01  -1.0509167279269165e-01  -6.9258723428620383e-02  -3.9851381872689759e-02  -1.7999755769067111e-02  -4.5435908543814798e-03  0.0000000000000000e+00  -4.5435908543814798e-03  -1.7999755769067132e-02  -3.9851381872689787e-02  -6.9258723428620425e-02  -1.0509167279269171e-01  -1.4597318981619178e-01  -1.9033222072652661e-01  -2.3646407284264309e-01  -2.8259592495875951e-01  -3.2695495586909434e-01  -3.6783647289259436e-01  -4.0366942225666558e-01  -4.3307676381259630e-01  -4.5492838991621881e-01  -4.6838455483090469e-01  -4.7292814568528618e-01  -4.6838455483090469e-01  -4.5492838991621881e-01  -4.3307676381259630e-01  -4.0366942225666558e-01  -3.6783647289259436e-01  -3.2695495586909434e-01  -2.8259592495875951e-01  -2.3646407284264309e-01  -1.9033222072652661e-01  -1.4597318981619178e-01  -1.0509167279269171e-01  -6.9258723428620425e-02  -3.9851381872689787e-02  -1.7999755769067132e-02  -4.5435908543814798e-03  0.0000000000000000e+00  -4.5435908543814798e-03  -1.7999755769067111e-02  -3.9851381872689759e-02  -6.9258723428620383e-02  -1.0509167279269165e-01  -1.4597318981619167e-01  -1.9033222072652653e-01  -2.3646407284264304e-01  -2.8259592495875951e-01  -3.2695495586909440e-01  -3.6783647289259430e-01  -4.0366942225666558e-01  -4.3307676381259630e-01  -4.5492838991621881e-01  -4.6838455483090469e-01  -4.7292814568528618e-01  -4.6838455483090469e-01  -3.4168034995814300e-01  -2.8790433803093807e-01  -2.1316334371072754e-01  -1.2920078960375769e-01  -3.9248523015438012e-02  5.3891063937471652e-02  1.4782151206069674e-01  2.4032031213639754e-01  3.2925447045480477e-01  4.1256481220321417e-01  4.8829286981409797e-01  5.5463178178912009e-01  6.0998728035691108e-01  6.5303860086899967e-01  6.8279208934704039e-01  6.9862284815277986e-01  7.0030133202546674e-01  6.8800315545026169e-01  6.6230094868775102e-01  6.2413790365035648e-01  5.7478320181477582e-01  5.1577080035792822e-01  4.4882443109589221e-01  3.7577371801479642e-01  2.9846795268429066e-01  2.1869526129322300e-01  1.3811445271530010e-01  5.8204939911217640e-02  -1.9763215712929383e-02  -9.4740662493758038e-02  -1.6589578357254781e-01  -2.3260266188453704e-01  -2.9442435014039692e-01  -3.5109389797394469e-01  -4.0249344865253589e-01  -4.4863067926190447e-01  -4.8961177850037985e-01  -5.2561138809551400e-01  -5.5684118125077431e-01  -5.8352009990567466e-01  -6.0584946851334154e-01  -6.2399599021543872e-01  -6.3808426502389715e-01  -6.4819916484813167e-01  -6.5439661904908897e-01  -6.5672031295162681e-01  -6.5522077477445151e-01  -6.4997335813721624e-01  -6.4109178122584587e-01  -6.2873511074273036e-01  -6.1310707285611410e-01  -5.9444899862845191e-01  -5.7302715516868574e-01  -5.4912459196109986e-01  -5.2302303679735929e-01  -4.9505314329895383e-01  -4.6549260974618467e-01  -4.3511085422503248e-01  -4.0396427951381259e-01  -3.7631368405408960e-01  -3.4813198818160046e-01  -3.4808825330539356e-01  -3.1910128740976151e-01  -4.6838455483090469e-01  -4.5492838991621881e-01  -3.3546513232483477e-01  -3.1628304512647698e-01  -2.6392632672613453e-01  -2.0691744276160492e-01  -1.4506930987378383e-01  -8.0521233715575111e-02  -1.5060884579752765e-02  4.9647162216214014e-02  1.1202950442182548e-01  1.7058785021673503e-01  2.2391032074930933e-01  2.7070222692850776e-01  3.0982790727351844e-01  3.4035552366610511e-01  3.6159807647044384e-01  3.7314516698564887e-01  3.7488180614051214e-01  3.6699175475179158e-01  3.4994446242481142e-01  3.2446576436865976e-01  2.9149418478436528e-01  2.5212603229415265e-01  2.0755420901511373e-01  1.5900660485428925e-01  1.0769044656463753e-01  5.4747930622921645e-02  1.2264932371941269e-03  -5.1935911110093103e-02  -1.0391298482911968e-01  -1.5398424825579313e-01  -2.0152632498897019e-01  -2.4600562219864253e-01  -2.8697492912752787e-01  -3.2407434794214679e-01  -3.5703546100207095e-01  -3.8568668590224442e-01  -4.0995783763955335e-01  -4.2988214154957993e-01  -4.4559463931433363e-01  -4.5732614107536745e-01  -4.6539235748657698e-01  -4.7017782862289276e-01  -4.7211482608505972e-01  -4.7165774376870456e-01  -4.6925451264216889e-01  -4.6531717516317167e-01  -4.6019467297684458e-01  -4.5415094674979500e-01  -4.4735148539250957e-01  -4.3986051742106624e-01  -4.3164998972620228e-01  -4.2262058872263863e-01  -4.1263180413687117e-01  -4.0154584762500650e-01  -3.8926035353263050e-01  -3.7581366689248885e-01  -3.6128760983898256e-01  -3.4646307599036014e-01  -3.3120253191299198e-01  -3.2037114912719172e-01  -3.0660565294277659e-01  -3.2406786202439719e-01  -2.8068335576555942e-01  -4.5492838991621881e-01  -4.3307676381259630e-01  -3.4393195127731718e-01  -3.1238139336420795e-01  -2.5627042747925710e-01  -1.9778987359370900e-01  -1.3444715789787959e-01  -6.8585058314465305e-02  -1.7869423610268409e-03  6.4378995313310386e-02  1.2838934036157557e-01  1.8875893570723906e-01  2.4406006412536405e-01  2.9295934819229513e-01  3.3426610982449168e-01  3.6698472247200642e-01  3.9036360874855375e-01  4.0393454963142178e-01  4.0753732721650587e-01  4.0132653317305828e-01  3.8575917831707995e-01  3.6156373702353722e-01  3.2969313644943571e-01  2.9126603549650831e-01  2.4750208319284991e-01  1.9965756528342507e-01  1.4896752603597838e-01  9.6599176842907850e-02  4.3619258737722391e-02  -9.0244246752129408e-03  -6.0509283796117773e-02  -1.1013546165483772e-01  -1.5731846774934194e-01  -2.0158033339149736e-01  -2.4254157524748041e-01  -2.7991496915705927e-01  -3.1350099183424784e-01  -3.4318407751490426e-01  -3.6892854841862327e-01  -3.9077322248274576e-01  -4.0882400483487796e-01  -4.2324423205699585e-01  -4.3424288717715459e-01  -4.4206119682965950e-01  -4.4695832524255014e-01  -4.4919710070220120e-01  -4.4903074748511057e-01  -4.4669164307950149e-01  -4.4238294078013507e-01  -4.3627377295712644e-01  -4.2849841482182360e-01  -4.1915968629788980e-01  -4.0833641085867772e-01  -3.9609553469676051e-01  -3.8250662834476712e-01  -3.6766767039173848e-01  -3.5171342776418513e-01  -3.3491377222562535e-01  -3.1751171139624090e-01  -3.0050184236299399e-01  -2.8345897825517802e-01  -2.7197846763189759e-01  -2.5476761218788752e-01  -2.7451314948619487e-01  -2.0205757066698438e-01  -4.3307676381259630e-01  -4.0366942225666558e-01  -3.6573295392039706e-01  -3.2134319334329886e-01  -2.6835166767421292e-01  -2.1321180812855614e-01  -1.5495627039627222e-01  -9.5394345122396210e-02  -3.5668697099799404e-02  2.2956949053040035e-02  7.9258639843263839e-02  1.3205391489290094e-01  1.8022524267506421e-01  2.2274924994552245e-01  2.5873064079872959e-01  2.8743691343378702e-01  3.0832960055577679e-01  3.2108811350798483e-01  3.2562303218616273e-01  3.2207695816011345e-01  3.1081237254663885e-01  2.9238749563083277e-01  2.6752236634662357e-01  2.3705847296475296e-01  2.0191572804087607e-01  1.6305065480537834e-01  1.2141901760563970e-01  7.7945196795823138e-02  3.3499328517080179e-02  -1.1117916266986194e-02  -5.5184041510470350e-02  -9.8058571523725324e-02  -1.3918382070795132e-01  -1.7808410648043715e-01  -2.1436442332907077e-01  -2.4770904109937472e-01  -2.7787996692160749e-01  -3.0471494001714827e-01  -3.2812446199158407e-01  -3.4808747089334185e-01  -3.6464536433773348e-01  -3.7789432612256624e-01  -3.8797603085109439e-01  -3.9506702385091741e-01  -3.9936714871772505e-01  -4.0108761615947203e-01  -4.0043936451289608e-01  -3.9762256207129443e-01  -3.9281810843523246e-01  -3.8618205591199367e-01  -3.7784368386725881e-01  -3.6790786238971679e-01  -3.5646175647239442e-01  -3.4358664917381798e-01  -3.2937189125922778e-01  -3.1394112063269708e-01  -2.9745455322342895e-01  -2.8021680217487743e-01  -2.6245433518466138e-01  -2.4524055427542460e-01  -2.2771957684837385e-01  -2.1629496680000798e-01  -1.9561026289199296e-01  -2.1828372148831926e-01  -1.1895093204932829e-01  -4.0366942225666558e-01  -3.6783647289259430e-01  -3.9345629903986995e-01  -3.3402885827552287e-01  -2.8183316588883101e-01  -2.2698231836533181e-01  -1.7070939539328159e-01  -1.1387427178802151e-01  -5.7362885625850991e-02  -2.1882224895489531e-03  5.0643618768498197e-02  1.0013898216440789e-01  1.4534801707328354e-01  1.8539416452554713e-01  2.1950570199057934e-01  2.4704689469219282e-01  2.6754596243391926e-01  2.8071676433861026e-01  2.8647167562286002e-01  2.8492386802662545e-01  2.7637850425680327e-01  2.6131343840761345e-01  2.4035131701478640e-01  2.1422571200141954e-01  1.8374453548701777e-01  1.4975388082843899e-01  1.1310512742497497e-01  7.4627284444588382e-02  3.5105678062325667e-02  -4.7329491559441085e-03  -4.4229589055224741e-02  -8.2797580896518327e-02  -1.1992405863016918e-01  -1.5516948724585328e-01  -1.8816623389120271e-01  -2.1861667706117371e-01  -2.4629103129605695e-01  -2.7102471599498018e-01  -2.9271504439063745e-01  -3.1131690958256025e-01  -3.2683733440546331e-01  -3.3932877386078231e-01  -3.4888133362288964e-01  -3.5561409423824408e-01  -3.5966600100073348e-01  -3.6118674467411899e-01  -3.6032829022532903e-01  -3.5723760689094392e-01  -3.5205128778475164e-01  -3.4489252924002123e-01  -3.3587094166169557e-01  -3.2508542478861741e-01  -3.1263003526723715e-01  -2.9860356943802813e-01  -2.8311955275247724e-01  -2.6632868241945062e-01  -2.4841036696456303e-01  -2.2968853818951621e-01  -2.1034182286650011e-01  -1.9150344384195758e-01  -1.7182404833345277e-01  -1.5868294067243296e-01  -1.3247160982685793e-01  -1.5699640326428083e-01  -2.9497553639082803e-02  -3.6783647289259430e-01  -3.2695495586909440e-01  -4.2321439591562993e-01  -3.4872811189297315e-01  -2.9807987132967773e-01  -2.4383881417929595e-01  -1.8969204840570539e-01  -1.3570350192104666e-01  -8.2601117787450981e-02  -3.1151589044076038e-02  1.7842715629234923e-02  6.3578748091027745e-02  1.0528740496912242e-01  1.4226199766140740e-01  1.7388564100912088e-01  1.9965611714460840e-01  2.1920675607019441e-01  2.3232176387917616e-01  2.3894452924739873e-01  2.3917814472422078e-01  2.3327794909707439e-01  2.2163681635758897e-01  2.0476444428643684e-01  1.8326253832340592e-01  1.5779791075345603e-01  1.2907562253972710e-01  9.7813918846145459e-02  6.4722356566426567e-02  3.0483889139767753e-02  -4.2588187565310472e-03  -3.8913099607389673e-02  -7.2942569002661967e-02  -1.0587071489223812e-01  -1.3728252030629867e-01  -1.6682469736116254e-01  -1.9420495590210929e-01  -2.1919047372038977e-01  -2.4160564684404806e-01  -2.6132901670712494e-01  -2.7828934619363588e-01  -2.9246074146453760e-01  -3.0385691483020505e-01  -3.1252464231520716e-01  -3.1853670720152927e-01  -3.2198456596097941e-01  -3.2297120087077275e-01  -3.2160451620034647e-01  -3.1799182367433737e-01  -3.1223577951399967e-01  -3.0443226063398177e-01  -2.9467037593190959e-01  -2.8303493675275293e-01  -2.6961109389658694e-01  -2.5449214352182709e-01  -2.3778652805710782e-01  -2.1963815961545505e-01  -2.0020885289347148e-01  -1.7980589941304345e-01  -1.5852363776150885e-01  -1.3754364041806966e-01  -1.1498247634591784e-01  -9.9352687298474615e-02  -6.6600846708661926e-02  -9.2635877835779937e-02  6.2967547710454930e-02  -3.2695495586909440e-01  -2.8259592495875951e-01  -4.5313671909198344e-01  -3.6383295790815973e-01  -3.1527110688205151e-01  -2.6144043129222677e-01  -2.0897713560026623e-01  -1.5720943092396411e-01  -1.0675843760967256e-01  -5.8187941232066588e-02  -1.2135683017894919e-02  3.0752237991623455e-02  6.9850617851821478e-02  1.0458278675305688e-01  1.3444522097436148e-01  1.5902885748835002e-01  1.7803656870275761e-01  1.9129580820619060e-01  1.9876558509196218e-01  2.0053721969384683e-01  1.9682883038308621e-01  1.8797402273089889e-01  1.7440575919438994e-01  1.5663676898387707e-01  1.3523806867936983e-01  1.1081718529211575e-01  8.3997499204321965e-02  5.5399815236895460e-02  2.5626861006436706e-02  -4.7489915574109118e-03  -3.5194859041117521e-02  -6.5223666233728730e-02  -9.4398135983825682e-02  -1.2233295094374284e-01  -1.4869553076379635e-01  -1.7320574742763351e-01  -1.9563477494121156e-01  -2.1580315965827138e-01  -2.3357813311880923e-01  -2.4887016033293435e-01  -2.6162874435493932e-01  -2.7183754283922290e-01  -2.7950893013127209e-01  -2.8467819282299550e-01  -2.8739762271204722e-01  -2.8773080939954571e-01  -2.8574748499168823e-01  -2.8151925273691086e-01  -2.7511654480850806e-01  -2.6660706316816007e-01  -2.5605590326789723e-01  -2.4352750020604921e-01  -2.2908914056376686e-01  -2.1281703403238239e-01  -1.9480064255894466e-01  -1.7516121190520259e-01  -1.5402591933959767e-01  -1.3166904124840587e-01  -1.0808471055751662e-01  -8.4503728824908877e-02  -5.8487255147306190e-02  -3.9799820646098397e-02  2.0132050748158017e-04  -2.7109759227039901e-02  1.5616924253074263e-01  -2.8259592495875951e-01  -2.3646407284264304e-01  -4.8233229645616182e-01  -3.7842456142578168e-01  -3.3257676397161801e-01  -2.7923005826790886e-01  -2.2835530446091223e-01  -1.7854947181330882e-01  -1.3040528902032467e-01  -8.4328633523613347e-02  -4.0825382928220189e-02  -4.1082565247479297e-04  3.6411801716547058e-02  6.9178073803307608e-02  9.7483883494406717e-02  1.2100356908786485e-01  1.3950424052346769e-01  1.5285581436653708e-01  1.6103637532519594e-01  1.6413258644403650e-01  1.6233528782570442e-01  1.5593064935719558e-01  1.4528768730820305e-01  1.3084307584264385e-01  1.1308443700837036e-01  9.2533187527199481e-02  6.9728020496543031e-02  4.5209802751382387e-02  1.9508493997851834e-02  -6.8676493366395565e-03  -3.3440510112164132e-02  -5.9768344078761512e-02  -8.5450064851309862e-02  -1.1012788915441374e-01  -1.3348864501468502e-01  -1.5526397144121720e-01  -1.7522960765218804e-01  -1.9320385658668743e-01  -2.0904532237192902e-01  -2.2264993981371445e-01  -2.3394739064644327e-01  -2.4289695327329197e-01  -2.4948295457390740e-01  -2.5370994962869059e-01  -2.5559788998137556e-01  -2.5517747369590188e-01  -2.5248598547036005e-01  -2.4756384382068786e-01  -2.4045212653616996e-01  -2.3119122945629558e-01  -2.1982080318518951e-01  -2.0638105231675605e-01  -1.9091512826110929e-01  -1.7347368824203688e-01  -1.5411698201711088e-01  -1.3293216401266345e-01  -1.1000033911580567e-01  -8.5552099441081622e-02  -5.9473738996438423e-02  -3.3045263646881436e-02  -3.2675238712777666e-03  1.8780916772413232e-02  6.6373415081090917e-02  3.7925481100194204e-02  2.4792307089221804e-01  -2.3646407284264304e-01  -1.9033222072652653e-01  -5.1033185718300744e-01  -3.9200607850865932e-01  -3.4942277493645668e-01  -2.9661538425201189e-01  -2.4723398175728017e-01  -1.9913934366314426e-01  -1.5296241164828100e-01  -1.0898451216590985e-01  -6.7610609968535670e-02  -2.9250820306061694e-02  5.6912664454723746e-03  3.6843468813955969e-02  6.3883234172972092e-02  8.6553040939153017e-02  1.0467224930354453e-01  1.1814532300141951e-01  1.2696616076705217e-01  1.3121850891996700e-01  1.3107252239109965e-01  1.2677787936673665e-01  1.1865396639687785e-01  1.0707792552997808e-01  9.2471350772166630e-02  7.5286535353597750e-02  5.5993010236474829e-02  3.5065060225752884e-02  1.2970651676729930e-02  -9.8379188207359091e-03  -3.2931580409559513e-02  -5.5910279713912964e-02  -7.8407161151492905e-02  -1.0009132778885113e-01  -1.2066938065404750e-01  -1.3988592885592541e-01  -1.5752319878051046e-01  -1.7339987353389821e-01  -1.8736922251360549e-01  -1.9931661982449361e-01  -2.0915649743655029e-01  -2.1682886005420920e-01  -2.2229544539056112e-01  -2.2553571756281382e-01  -2.2654282203435080e-01  -2.2531974202531166e-01  -2.2187581146517918e-01  -2.1622381658506487e-01  -2.0837781516884468e-01  -1.9835184239873127e-01  -1.8615953135305391e-01  -1.7181478100204745e-01  -1.5533311111744300e-01  -1.3673494263718630e-01  -1.1604584527153010e-01  -9.3312937861213877e-02  -6.8566082043265517e-02  -4.1986869557628904e-02  -1.3353767444639623e-02  1.6008094318164214e-02  4.9641873203668738e-02  7.5160504030165998e-02  1.3036083991168337e-01  1.0088609004897497e-01  3.3611471811390792e-01  -1.9033222072652653e-01  -1.4597318981619167e-01  -5.3682424611704327e-01  -4.0434892449709808e-01  -3.6544902018173592e-01  -3.1321650762715753e-01  -2.6526644671560684e-01  -2.1869713041189265e-01  -1.7422996532010207e-01  -1.3204902885732617e-01  -9.2485360077755097e-02  -5.5865477041129895e-02  -2.2511930458062140e-02  7.2794360172799971e-03  3.3254334307286679e-02  5.5212856013098145e-02  7.3019151240156482e-02  8.6608045316408075e-02  9.5988494602862628e-02  1.0124386751010793e-01  1.0252921669561442e-01  1.0006581000426343e-01  9.4133390840186640e-02  8.5060700165408287e-02  7.3214911938563026e-02  5.8990589995691872e-02  4.2798783811863611e-02  2.5056738800039106e-02  6.1786243848039680e-03  -1.3432494614520743e-02  -3.3391305274976038e-02  -5.3335511576173722e-02  -7.2929775549233092e-02  -9.1868450085283868e-02  -1.0987723606597657e-01  -1.2671389008539954e-01  -1.4216810584036194e-01  -1.5606065794816998e-01  -1.6824190463177585e-01  -1.7858971476168983e-01  -1.8700691678747183e-01  -1.9341834234192987e-01  -1.9776759572000227e-01  -2.0001365029286960e-01  -2.0012744181453376e-01  -1.9808857932030982e-01  -1.9388235478218729e-01  -1.8749716671186184e-01  -1.7892250171985996e-01  -1.6814754082929886e-01  -1.5516044913381721e-01  -1.3994840840489617e-01  -1.2249810479009057e-01  -1.0279789148359440e-01  -8.0836620960860944e-02  -5.6619211894210188e-02  -3.0123428552327351e-02  -1.4797971344812678e-03  2.9634896923950649e-02  6.1860654772464628e-02  9.9242780493855084e-02  1.2816645247589858e-01  1.9066341411645335e-01  1.6026854252815972e-01  4.1869813818106505e-01  -1.4597318981619167e-01  -1.0509167279269165e-01  -5.6154107118268348e-01  -4.1540042536987942e-01  -3.8043048769755222e-01  -3.2877035612328143e-01  -2.8218497683633492e-01  -2.3697823185205558e-01  -1.9400295794210540e-01  -1.5336557533405185e-01  -1.1534430950298556e-01  -8.0199568824685485e-02  -4.8188377355054726e-02  -1.9543632337419205e-02  5.5372870517955341e-03  2.6902919800077117e-02  4.4455428156578762e-02  5.8155852714100190e-02  6.8026808281515222e-02  7.4152666012095234e-02  7.6677347643611726e-02  7.5799972048554487e-02  7.1768693943430467e-02  6.4873160030808757e-02  5.5436047306438030e-02  4.3804170685808490e-02  3.0339602882083479e-02  1.5411207397996191e-02  -6.1312038661743879e-04  -1.7373276472845939e-02  -3.4522723790593908e-02  -5.1733168810768879e-02  -6.8698165431684083e-02  -8.5135701313855672e-02  -1.0078985550105278e-01  -1.1543161420249348e-01  -1.2885893813156774e-01  -1.4089616017292206e-01  -1.5139279406667136e-01  -1.6022182715466027e-01  -1.6727757539709462e-01  -1.7247318743688286e-01  -1.7573788996573519e-01  -1.7701408588473957e-01  -1.7625441213922785e-01  -1.7341888382838311e-01  -1.6847223223828334e-01  -1.6138154824303594e-01  -1.5211430907683463e-01  -1.4063685798856931e-01  -1.2691335009786914e-01  -1.1090524554946014e-01  -9.2571050963394505e-02  -7.1867571945822328e-02  -4.8747669105377117e-02  -2.3174963715392630e-02  4.9222502661861274e-03  3.5463992217773688e-02  6.8863366368432349e-02  1.0374188919371156e-01  1.4457680104285420e-01  1.7668375444586679e-01  2.4584245833358609e-01  2.1464847398003575e-01  4.9371987137925044e-01  -1.0509167279269165e-01  -6.9258723428620383e-02  -5.8420754469771463e-01  -4.2521975936316564e-01  -3.9422556671851261e-01  -3.4309786716218743e-01  -2.9779523791455287e-01  -2.5380418258167609e-01  -2.1213696953367059e-01  -1.7283483953848799e-01  -1.3613888713050090e-01  -1.0225685325791652e-01  -7.1392493828274478e-02  -4.3726452938119831e-02  -1.9408301906270978e-02  1.4516265107730518e-03  1.8788148395766112e-02  3.2585270403989917e-02  4.2878206093116773e-02  4.9753430108636650e-02  5.3346852167240645e-02  5.3840315625759375e-02  5.1456664189790002e-02  4.6453708891491717e-02  3.9117439581233787e-02  2.9754850250314119e-02  1.8686719845810201e-02  6.240651503