<?xml version="1.0"?>
<VTKFile type="UnstructuredGrid"  version="0.1"  >
<UnstructuredGrid>
<Piece  NumberOfPoints="4225" NumberOfCells="8192">
<Points>
<DataArray  type="Float64"  NumberOfComponents="3"  format="ascii">-1 -1 0  -0.96875 -1 0  -0.9375 -1 0  -0.90625 -1 0  -0.875 -1 0  -0.84375 -1 0  -0.8125 -1 0  -0.78125 -1 0  -0.75 -1 0  -0.71875 -1 0  -0.6875 -1 0  -0.65625 -1 0  -0.625 -1 0  -0.59375 -1 0  -0.5625 -1 0  -0.53125 -1 0  -0.5 -1 0  -0.46875 -1 0  -0.4375 -1 0  -0.40625 -1 0  -0.375 -1 0  -0.34375 -1 0  -0.3125 -1 0  -0.28125 -1 0  -0.25 -1 0  -0.21875 -1 0  -0.1875 -1 0  -0.15625 -1 0  -0.125 -1 0  -0.09375 -1 0  -0.0625 -1 0  -0.03125 -1 0  0 -1 0  0.03125 -1 0  0.0625 -1 0  0.09375 -1 0  0.125 -1 0  0.15625 -1 0  0.1875 -1 0  0.21875 -1 0  0.25 -1 0  0.28125 -1 0  0.3125 -1 0  0.34375 -1 0  0.375 -1 0  0.40625 -1 0  0.4375 -1 0  0.46875 -1 0  0.5 -1 0  0.53125 -1 0  0.5625 -1 0  0.59375 -1 0  0.625 -1 0  0.65625 -1 0  0.6875 -1 0  0.71875 -1 0  0.75 -1 0  0.78125 -1 0  0.8125 -1 0  0.84375 -1 0  0.875 -1 0  0.90625 -1 0  0.9375 -1 0  0.96875 -1 0  1 -1 0  -1 -0.96875 0  -0.96875 -0.96875 0  -0.9375 -0.96875 0  -0.90625 -0.96875 0  -0.875 -0.96875 0  -0.84375 -0.96875 0  -0.8125 -0.96875 0  -0.78125 -0.96875 0  -0.75 -0.96875 0  -0.71875 -0.96875 0  -0.6875 -0.96875 0  -0.65625 -0.96875 0  -0.625 -0.96875 0  -0.59375 -0.96875 0  -0.5625 -0.96875 0  -0.53125 -0.96875 0  -0.5 -0.96875 0  -0.46875 -0.96875 0  -0.4375 -0.96875 0  -0.40625 -0.96875 0  -0.375 -0.96875 0  -0.34375 -0.96875 0  -0.3125 -0.96875 0  -0.28125 -0.96875 0  -0.25 -0.96875 0  -0.21875 -0.96875 0  -0.1875 -0.96875 0  -0.15625 -0.96875 0  -0.125 -0.96875 0  -0.09375 -0.96875 0  -0.0625 -0.96875 0  -0.03125 -0.96875 0  0 -0.96875 0  0.03125 -0.96875 0  0.0625 -0.96875 0  0.09375 -0.96875 0  0.125 -0.96875 0  0.15625 -0.96875 0  0.1875 -0.96875 0  0.21875 -0.96875 0  0.25 -0.96875 0  0.28125 -0.96875 0  0.3125 -0.96875 0  0.34375 -0.96875 0  0.375 -0.96875 0  0.40625 -0.96875 0  0.4375 -0.96875 0  0.46875 -0.96875 0  0.5 -0.96875 0  0.53125 -0.96875 0  0.5625 -0.96875 0  0.59375 -0.96875 0  0.625 -0.96875 0  0.65625 -0.96875 0  0.6875 -0.96875 0  0.71875 -0.96875 0  0.75 -0.96875 0  0.78125 -0.96875 0  0.8125 -0.96875 0  0.84375 -0.96875 0  0.875 -0.96875 0  0.90625 -0.96875 0  0.9375 -0.96875 0  0.96875 -0.96875 0  1 -0.96875 0  -1 -0.9375 0  -0.96875 -0.9375 0  -0.9375 -0.9375 0  -0.90625 -0.9375 0  -0.875 -0.9375 0  -0.84375 -0.9375 0  -0.8125 -0.9375 0  -0.78125 -0.9375 0  -0.75 -0.9375 0  -0.71875 -0.9375 0  -0.6875 -0.9375 0  -0.65625 -0.9375 0  -0.625 -0.9375 0  -0.59375 -0.9375 0  -0.5625 -0.9375 0  -0.53125 -0.9375 0  -0.5 -0.9375 0  -0.46875 -0.9375 0  -0.4375 -0.9375 0  -0.40625 -0.9375 0  -0.375 -0.9375 0  -0.34375 -0.9375 0  -0.3125 -0.9375 0  -0.28125 -0.9375 0  -0.25 -0.9375 0  -0.21875 -0.9375 0  -0.1875 -0.9375 0  -0.15625 -0.9375 0  -0.125 -0.9375 0  -0.09375 -0.9375 0  -0.0625 -0.9375 0  -0.03125 -0.9375 0  0 -0.9375 0  0.03125 -0.9375 0  0.0625 -0.9375 0  0.09375 -0.9375 0  0.125 -0.9375 0  0.15625 -0.9375 0  0.1875 -0.9375 0  0.21875 -0.9375 0  0.25 -0.9375 0  0.28125 -0.9375 0  0.3125 -0.9375 0  0.34375 -0.9375 0  0.375 -0.9375 0  0.40625 -0.9375 0  0.4375 -0.9375 0  0.46875 -0.9375 0  0.5 -0.9375 0  0.53125 -0.9375 0  0.5625 -0.9375 0  0.59375 -0.9375 0  0.625 -0.9375 0  0.65625 -0.9375 0  0.6875 -0.9375 0  0.71875 -0.9375 0  0.75 -0.9375 0  0.78125 -0.9375 0  0.8125 -0.9375 0  0.84375 -0.9375 0  0.875 -0.9375 0  0.90625 -0.9375 0  0.9375 -0.9375 0  0.96875 -0.9375 0  1 -0.9375 0  -1 -0.90625 0  -0.96875 -0.90625 0  -0.9375 -0.90625 0  -0.90625 -0.90625 0  -0.875 -0.90625 0  -0.84375 -0.90625 0  -0.8125 -0.90625 0  -0.78125 -0.90625 0  -0.75 -0.90625 0  -0.71875 -0.90625 0  -0.6875 -0.90625 0  -0.65625 -0.90625 0  -0.625 -0.90625 0  -0.59375 -0.90625 0  -0.5625 -0.90625 0  -0.53125 -0.90625 0  -0.5 -0.90625 0  -0.46875 -0.90625 0  -0.4375 -0.90625 0  -0.40625 -0.90625 0  -0.375 -0.90625 0  -0.34375 -0.90625 0  -0.3125 -0.90625 0  -0.28125 -0.90625 0  -0.25 -0.90625 0  -0.21875 -0.90625 0  -0.1875 -0.90625 0  -0.15625 -0.90625 0  -0.125 -0.90625 0  -0.09375 -0.90625 0  -0.0625 -0.90625 0  -0.03125 -0.90625 0  0 -0.90625 0  0.03125 -0.90625 0  0.0625 -0.90625 0  0.09375 -0.90625 0  0.125 -0.90625 0  0.15625 -0.90625 0  0.1875 -0.90625 0  0.21875 -0.90625 0  0.25 -0.90625 0  0.28125 -0.90625 0  0.3125 -0.90625 0  0.34375 -0.90625 0  0.375 -0.90625 0  0.40625 -0.90625 0  0.4375 -0.90625 0  0.46875 -0.90625 0  0.5 -0.90625 0  0.53125 -0.90625 0  0.5625 -0.90625 0  0.59375 -0.90625 0  0.625 -0.90625 0  0.65625 -0.90625 0  0.6875 -0.90625 0  0.71875 -0.90625 0  0.75 -0.90625 0  0.78125 -0.90625 0  0.8125 -0.90625 0  0.84375 -0.90625 0  0.875 -0.90625 0  0.90625 -0.90625 0  0.9375 -0.90625 0  0.96875 -0.90625 0  1 -0.90625 0  -1 -0.875 0  -0.96875 -0.875 0  -0.9375 -0.875 0  -0.90625 -0.875 0  -0.875 -0.875 0  -0.84375 -0.875 0  -0.8125 -0.875 0  -0.78125 -0.875 0  -0.75 -0.875 0  -0.71875 -0.875 0  -0.6875 -0.875 0  -0.65625 -0.875 0  -0.625 -0.875 0  -0.59375 -0.875 0  -0.5625 -0.875 0  -0.53125 -0.875 0  -0.5 -0.875 0  -0.46875 -0.875 0  -0.4375 -0.875 0  -0.40625 -0.875 0  -0.375 -0.875 0  -0.34375 -0.875 0  -0.3125 -0.875 0  -0.28125 -0.875 0  -0.25 -0.875 0  -0.21875 -0.875 0  -0.1875 -0.875 0  -0.15625 -0.875 0  -0.125 -0.875 0  -0.09375 -0.875 0  -0.0625 -0.875 0  -0.03125 -0.875 0  0 -0.875 0  0.03125 -0.875 0  0.0625 -0.875 0  0.09375 -0.875 0  0.125 -0.875 0  0.15625 -0.875 0  0.1875 -0.875 0  0.21875 -0.875 0  0.25 -0.875 0  0.28125 -0.875 0  0.3125 -0.875 0  0.34375 -0.875 0  0.375 -0.875 0  0.40625 -0.875 0  0.4375 -0.875 0  0.46875 -0.875 0  0.5 -0.875 0  0.53125 -0.875 0  0.5625 -0.875 0  0.59375 -0.875 0  0.625 -0.875 0  0.65625 -0.875 0  0.6875 -0.875 0  0.71875 -0.875 0  0.75 -0.875 0  0.78125 -0.875 0  0.8125 -0.875 0  0.84375 -0.875 0  0.875 -0.875 0  0.90625 -0.875 0  0.9375 -0.875 0  0.96875 -0.875 0  1 -0.875 0  -1 -0.84375 0  -0.96875 -0.84375 0  -0.9375 -0.84375 0  -0.90625 -0.84375 0  -0.875 -0.84375 0  -0.84375 -0.84375 0  -0.8125 -0.84375 0  -0.78125 -0.84375 0  -0.75 -0.84375 0  -0.71875 -0.84375 0  -0.6875 -0.84375 0  -0.65625 -0.84375 0  -0.625 -0.84375 0  -0.59375 -0.84375 0  -0.5625 -0.84375 0  -0.53125 -0.84375 0  -0.5 -0.84375 0  -0.46875 -0.84375 0  -0.4375 -0.84375 0  -0.40625 -0.84375 0  -0.375 -0.84375 0  -0.34375 -0.84375 0  -0.3125 -0.84375 0  -0.28125 -0.84375 0  -0.25 -0.84375 0  -0.21875 -0.84375 0  -0.1875 -0.84375 0  -0.15625 -0.84375 0  -0.125 -0.84375 0  -0.09375 -0.84375 0  -0.0625 -0.84375 0  -0.03125 -0.84375 0  0 -0.84375 0  0.03125 -0.84375 0  0.0625 -0.84375 0  0.09375 -0.84375 0  0.125 -0.84375 0  0.15625 -0.84375 0  0.1875 -0.84375 0  0.21875 -0.84375 0  0.25 -0.84375 0  0.28125 -0.84375 0  0.3125 -0.84375 0  0.34375 -0.84375 0  0.375 -0.84375 0  0.40625 -0.84375 0  0.4375 -0.84375 0  0.46875 -0.84375 0  0.5 -0.84375 0  0.53125 -0.84375 0  0.5625 -0.84375 0  0.59375 -0.84375 0  0.625 -0.84375 0  0.65625 -0.84375 0  0.6875 -0.84375 0  0.71875 -0.84375 0  0.75 -0.84375 0  0.78125 -0.84375 0  0.8125 -0.84375 0  0.84375 -0.84375 0  0.875 -0.84375 0  0.90625 -0.84375 0  0.9375 -0.84375 0  0.96875 -0.84375 0  1 -0.84375 0  -1 -0.8125 0  -0.96875 -0.8125 0  -0.9375 -0.8125 0  -0.90625 -0.8125 0  -0.875 -0.8125 0  -0.84375 -0.8125 0  -0.8125 -0.8125 0  -0.78125 -0.8125 0  -0.75 -0.8125 0  -0.71875 -0.8125 0  -0.6875 -0.8125 0  -0.65625 -0.8125 0  -0.625 -0.8125 0  -0.59375 -0.8125 0  -0.5625 -0.8125 0  -0.53125 -0.8125 0  -0.5 -0.8125 0  -0.46875 -0.8125 0  -0.4375 -0.8125 0  -0.40625 -0.8125 0  -0.375 -0.8125 0  -0.34375 -0.8125 0  -0.3125 -0.8125 0  -0.28125 -0.8125 0  -0.25 -0.8125 0  -0.21875 -0.8125 0  -0.1875 -0.8125 0  -0.15625 -0.8125 0  -0.125 -0.8125 0  -0.09375 -0.8125 0  -0.0625 -0.8125 0  -0.03125 -0.8125 0  0 -0.8125 0  0.03125 -0.8125 0  0.0625 -0.8125 0  0.09375 -0.8125 0  0.125 -0.8125 0  0.15625 -0.8125 0  0.1875 -0.8125 0  0.21875 -0.8125 0  0.25 -0.8125 0  0.28125 -0.8125 0  0.3125 -0.8125 0  0.34375 -0.8125 0  0.375 -0.8125 0  0.40625 -0.8125 0  0.4375 -0.8125 0  0.46875 -0.8125 0  0.5 -0.8125 0  0.53125 -0.8125 0  0.5625 -0.8125 0  0.59375 -0.8125 0  0.625 -0.8125 0  0.65625 -0.8125 0  0.6875 -0.8125 0  0.71875 -0.8125 0  0.75 -0.8125 0  0.78125 -0.8125 0  0.8125 -0.8125 0  0.84375 -0.8125 0  0.875 -0.8125 0  0.90625 -0.8125 0  0.9375 -0.8125 0  0.96875 -0.8125 0  1 -0.8125 0  -1 -0.78125 0  -0.96875 -0.78125 0  -0.9375 -0.78125 0  -0.90625 -0.78125 0  -0.875 -0.78125 0  -0.84375 -0.78125 0  -0.8125 -0.78125 0  -0.78125 -0.78125 0  -0.75 -0.78125 0  -0.71875 -0.78125 0  -0.6875 -0.78125 0  -0.65625 -0.78125 0  -0.625 -0.78125 0  -0.59375 -0.78125 0  -0.5625 -0.78125 0  -0.53125 -0.78125 0  -0.5 -0.78125 0  -0.46875 -0.78125 0  -0.4375 -0.78125 0  -0.40625 -0.78125 0  -0.375 -0.78125 0  -0.34375 -0.78125 0  -0.3125 -0.78125 0  -0.28125 -0.78125 0  -0.25 -0.78125 0  -0.21875 -0.78125 0  -0.1875 -0.78125 0  -0.15625 -0.78125 0  -0.125 -0.78125 0  -0.09375 -0.78125 0  -0.0625 -0.78125 0  -0.03125 -0.78125 0  0 -0.78125 0  0.03125 -0.78125 0  0.0625 -0.78125 0  0.09375 -0.78125 0  0.125 -0.78125 0  0.15625 -0.78125 0  0.1875 -0.78125 0  0.21875 -0.78125 0  0.25 -0.78125 0  0.28125 -0.78125 0  0.3125 -0.78125 0  0.34375 -0.78125 0  0.375 -0.78125 0  0.40625 -0.78125 0  0.4375 -0.78125 0  0.46875 -0.78125 0  0.5 -0.78125 0  0.53125 -0.78125 0  0.5625 -0.78125 0  0.59375 -0.78125 0  0.625 -0.78125 0  0.65625 -0.78125 0  0.6875 -0.78125 0  0.71875 -0.78125 0  0.75 -0.78125 0  0.78125 -0.78125 0  0.8125 -0.78125 0  0.84375 -0.78125 0  0.875 -0.78125 0  0.90625 -0.78125 0  0.9375 -0.78125 0  0.96875 -0.78125 0  1 -0.78125 0  -1 -0.75 0  -0.96875 -0.75 0  -0.9375 -0.75 0  -0.90625 -0.75 0  -0.875 -0.75 0  -0.84375 -0.75 0  -0.8125 -0.75 0  -0.78125 -0.75 0  -0.75 -0.75 0  -0.71875 -0.75 0  -0.6875 -0.75 0  -0.65625 -0.75 0  -0.625 -0.75 0  -0.59375 -0.75 0  -0.5625 -0.75 0  -0.53125 -0.75 0  -0.5 -0.75 0  -0.46875 -0.75 0  -0.4375 -0.75 0  -0.40625 -0.75
[...]
<PointData  Scalars="f_15"> 
<DataArray  type="Float64"  Name="f_15"  format="ascii">-4.1516030320966185e-01  -4.1117170880272014e-01  -3.9935920502812405e-01  -3.8017673978140326e-01  -3.5436148444433851e-01  -3.2290550480217117e-01  -2.8701763651183337e-01  -2.4807703022557415e-01  -2.0758015160483090e-01  -1.6708327298408762e-01  -1.2814266669782845e-01  -9.2254798407490665e-02  -6.0798818765323351e-02  -3.4983563428258549e-02  -1.5801098181537680e-02  -3.9885944069417431e-03  0.0000000000000000e+00  -3.9885944069417431e-03  -1.5801098181537701e-02  -3.4983563428258570e-02  -6.0798818765323392e-02  -9.2254798407490735e-02  -1.2814266669782856e-01  -1.6708327298408776e-01  -2.0758015160483093e-01  -2.4807703022557415e-01  -2.8701763651183337e-01  -3.2290550480217117e-01  -3.5436148444433851e-01  -3.8017673978140326e-01  -3.9935920502812411e-01  -4.1117170880272014e-01  -4.1516030320966185e-01  -4.1117170880272014e-01  -3.9935920502812411e-01  -3.8017673978140326e-01  -3.5436148444433851e-01  -3.2290550480217117e-01  -2.8701763651183337e-01  -2.4807703022557415e-01  -2.0758015160483093e-01  -1.6708327298408776e-01  -1.2814266669782856e-01  -9.2254798407490735e-02  -6.0798818765323392e-02  -3.4983563428258570e-02  -1.5801098181537701e-02  -3.9885944069417431e-03  0.0000000000000000e+00  -3.9885944069417431e-03  -1.5801098181537680e-02  -3.4983563428258549e-02  -6.0798818765323351e-02  -9.2254798407490665e-02  -1.2814266669782845e-01  -1.6708327298408762e-01  -2.0758015160483090e-01  -2.4807703022557415e-01  -2.8701763651183337e-01  -3.2290550480217117e-01  -3.5436148444433851e-01  -3.8017673978140326e-01  -3.9935920502812405e-01  -4.1117170880272014e-01  -4.1516030320966185e-01  -4.1117170880272014e-01  -3.8091538166700734e-01  -3.7830104885500665e-01  -3.6705878969581479e-01  -3.4807763981099393e-01  -3.2127899638797358e-01  -2.8768132553819875e-01  -2.4875998656189161e-01  -2.0618937539167509e-01  -1.6168968050998367e-01  -1.1693371507959241e-01  -7.3487746490711325e-02  -3.2771780920500593e-02  3.9687918585833704e-03  3.5684387991689423e-02  6.1537315626085193e-02  8.0913716569709651e-02  9.3431835642442201e-02  9.8946886854853866e-02  9.7552684661067882e-02  8.9580140495894356e-02  7.5592556327378435e-02  5.6377293018801254e-02  3.2932498672616141e-02  6.4457040411318306e-03  -2.1742218981751965e-02  -5.0198411550964231e-02  -7.7497250406106749e-02  -1.0236325348536432e-01  -1.2384215504945657e-01  -1.4145334735039999e-01  -1.5525732646700599e-01  -1.6579074830004256e-01  -1.7388000504460685e-01  -1.8040510780127877e-01  -1.8610379044125744e-01  -1.9147183343647067e-01  -1.9676045111732904e-01  -2.0203350842958506e-01  -2.0724022536197356e-01  -2.1227392825875546e-01  -2.1700743378339535e-01  -2.2131006419574573e-01  -2.2505646496398718e-01  -2.2813586609789072e-01  -2.3046557818434854e-01  -2.3200778597226809e-01  -2.3278543648576311e-01  -2.3289227146851468e-01  -2.3249360343506284e-01  -2.3181871046437766e-01  -2.3115169927898271e-01  -2.3083469039673088e-01  -2.3129720644184515e-01  -2.3311660088840122e-01  -2.3707365789825904e-01  -2.4414927097670092e-01  -2.5533555947785141e-01  -2.7133076219555763e-01  -2.9192110364981533e-01  -3.1609325497781426e-01  -3.4054812026117315e-01  -3.6553059645246605e-01  -3.7611756596158036e-01  -4.1117170880272014e-01  -3.9935920502812405e-01  -3.6498306093385446e-01  -3.7632684942391131e-01  -3.6697142516201259e-01  -3.4899780142986581e-01  -3.2260622992636812e-01  -2.8953077159076490e-01  -2.5155600595017297e-01  -2.1050862058802505e-01  -1.6816807881057466e-01  -1.2621553671331262e-01  -8.6199201999291195e-02  -4.9505531781101578e-02  -1.7331986125634566e-02  9.3388233508548881e-03  2.9761994962301787e-02  4.3448335167140723e-02  5.0175949582071021e-02  4.9994457758311878e-02  4.3221548244002372e-02  3.0432284880900818e-02  1.2442229906450957e-02  -9.7143439504973304e-03  -3.4810781414502223e-02  -6.1461666843580169e-02  -8.8172420758905051e-02  -1.1342026098245467e-01  -1.3578242600647911e-01  -1.5411158243360507e-01  -1.6772341538279950e-01  -1.7652595112066274e-01  -1.8101915567228150e-01  -1.8214412192206789e-01  -1.8103520525182978e-01  -1.7877032790885411e-01  -1.7619792048797292e-01  -1.7386737304703093e-01  -1.7204525006482693e-01  -1.7078105324590270e-01  -1.6998887349726077e-01  -1.6952226829353229e-01  -1.6923156101268305e-01  -1.6900153084184721e-01  -1.6877236140674426e-01  -1.6854794180504715e-01  -1.6839511440156371e-01  -1.6843645635401003e-01  -1.6883884836730642e-01  -1.6980020917871946e-01  -1.7153743782797140e-01  -1.7427936825844428e-01  -1.7826905696032111e-01  -1.8378014487197986e-01  -1.9114744697660757e-01  -2.0080841507164626e-01  -2.1332164977068294e-01  -2.2933420399298149e-01  -2.4936627470208972e-01  -2.7351885395824133e-01  -3.0082219168632851e-01  -3.2942579247279730e-01  -3.5528197241832055e-01  -3.7725210406558068e-01  -3.8201996799196947e-01  -3.9935920502812405e-01  -3.8017673978140326e-01  -3.4122368113476242e-01  -3.5523204205379022e-01  -3.4722916779400342e-01  -3.3200579951129333e-01  -3.0798428547702367e-01  -2.7695135572968482e-01  -2.4058040902936109e-01  -2.0068131823572807e-01  -1.5904303516930843e-01  -1.1736194377065909e-01  -7.7196419325056206e-02  -3.9936901325395541e-02  -6.7829585182193090e-03  2.1276126614905268e-02  4.3477953140694692e-02  5.9300342214389054e-02  6.8470862330326135e-02  7.0972257723462703e-02  6.7043897320967161e-02  5.7179625894387028e-02  4.2122219971265716e-02  2.2853407314604213e-02  5.7530509387068891e-04  -2.3326171612944493e-02  -4.7350925314230470e-02  -7.0002301263366568e-02  -8.9954009358806764e-02  -1.0623820817635551e-01  -1.1839550715783566e-01  -1.2652210739452568e-01  -1.3118547818900164e-01  -1.3323959288834297e-01  -1.3361176245061521e-01  -1.3312985160159621e-01  -1.3242356003953262e-01  -1.3189722999341186e-01  -1.3175265677611703e-01  -1.3203768151053721e-01  -1.3270152091301532e-01  -1.3364482863920110e-01  -1.3475883975073030e-01  -1.3595268254288714e-01  -1.3717059990796646e-01  -1.3840169430012270e-01  -1.3968452380345850e-01  -1.4110822927280367e-01  -1.4281130335502018e-01  -1.4497897111136768e-01  -1.4784035985115551e-01  -1.5166743738221741e-01  -1.5677807658718440e-01  -1.6354656831145342e-01  -1.7241935244173373e-01  -1.8393201428496042e-01  -1.9868495035380243e-01  -2.1725909127491724e-01  -2.3992415321107047e-01  -2.6636025124322782e-01  -2.9500688910133216e-01  -3.2358572858261719e-01  -3.4772441085408995e-01  -3.6628493307195453e-01  -3.6816086928994390e-01  -3.8017673978140326e-01  -3.5436148444433851e-01  -3.1543122738649942e-01  -3.2969958358901941e-01  -3.2331499018930732e-01  -3.0981357343429095e-01  -2.8766423877044667e-01  -2.5861169430907227e-01  -2.2419216649866458e-01  -1.8617921017180045e-01  -1.4635132774878573e-01  -1.0640635358419487e-01  -6.7900881085590128e-02  -3.2213340772514455e-02  -5.1910480399532241e-04  2.6228515653443075e-02  4.7313824258910293e-02  6.2271133330563715e-02  7.0893425796457799e-02  7.3236679757599885e-02  6.9619425957868158e-02  6.0617103468826844e-02  4.7049945812884499e-02  2.9961047772205960e-02  1.0577819140313952e-02  -9.7531665592583503e-03  -2.9667147314709017e-02  -4.7917535141139375e-02  -6.3527767219687697e-02  -7.5918017571627250e-02  -8.4960715678060142e-02  -9.0939939492919383e-02  -9.4428774209757815e-02  -9.6130606766443333e-02  -9.6735335788709034e-02  -9.6822219055562292e-02  -9.6815344874477238e-02  -9.6980713408194377e-02  -9.7448727594522166e-02  -9.8248193430860845e-02  -9.9342356651530642e-02  -1.0066154922538187e-01  -1.0212991913479223e-01  -1.0368571212309496e-01  -1.0529568757520946e-01  -1.0696475313481095e-01  -1.0874189244959238e-01  -1.1072333084658423e-01  -1.1305373891717495e-01  -1.1592637420251195e-01  -1.1958327425131197e-01  -1.2431722833227031e-01  -1.3047708131136354e-01  -1.3847859237920518e-01  -1.4881505346576651e-01  -1.6206102657536373e-01  -1.7881259311701955e-01  -1.9955998603888367e-01  -2.2432157148203796e-01  -2.5241621556843769e-01  -2.8179488823055021e-01  -3.0999451435085984e-01  -3.3248205040782780e-01  -3.4860191957904640e-01  -3.4942528061756645e-01  -3.5436148444433851e-01  -3.2290550480217117e-01  -2.9055531129961487e-01  -3.0152308367768360e-01  -2.9483205733522078e-01  -2.8164488605905807e-01  -2.6073711104286984e-01  -2.3339808033891296e-01  -2.0092399372853614e-01  -1.6490203968615136e-01  -1.2697833134823805e-01  -8.8765426016430157e-02  -5.1763990354452658e-02  -1.7312449266714543e-02  1.3446313035984330e-02  3.9587718206127227e-02  6.0421862658033065e-02  7.5505393987067321e-02  8.4649454715008843e-02  8.7923506893761216e-02  8.5654325941429313e-02  7.8418570479615382e-02  6.7025799841364336e-02  5.2486600288465662e-02  3.5958693199077726e-02  1.8664803506562952e-02  1.7825722064579474e-03  -1.3680471855349909e-02  -2.6999655317784147e-02  -3.7800513574949013e-02  -4.6058192091294012e-02  -5.2030617432143156e-02  -5.6151365999426675e-02  -5.8917810318381621e-02  -6.0802442522362998e-02  -6.2198833082300189e-02  -6.3399643577013096e-02  -6.4597397554122457e-02  -6.5898433315406374e-02  -6.7342866054967795e-02  -6.8926092701772051e-02  -7.0619217213612917e-02  -7.2387050727249019e-02  -7.4203091117025305e-02  -7.6061472187457332e-02  -7.7986136437008746e-02  -8.0037687889321918e-02  -8.2318389698535041e-02  -8.4975874273532967e-02  -8.8206242140010660e-02  -9.2257481616696599e-02  -9.7434658201266039e-02  -1.0410784454541318e-01  -1.1272421506246362e-01  -1.2381455276407917e-01  -1.3798465071029603e-01  -1.5581826842659080e-01  -1.7771197563493946e-01  -2.0343802044507295e-01  -2.3201725799775244e-01  -2.6100219586193285e-01  -2.8799240321800013e-01  -3.0833649684101422e-01  -3.2239771446292959e-01  -3.2192693221367408e-01  -3.2290550480217117e-01  -2.8701763651183337e-01  -2.6910727823527775e-01  -2.7424395588254835e-01  -2.6616452330462864e-01  -2.5228078311232777e-01  -2.3175534259817251e-01  -2.0554419113360098e-01  -1.7473250287946335e-01  -1.4067608922370495e-01  -1.0483760281826339e-01  -6.8690809101905989e-02  -3.3633996676963741e-02  -9.2857662250837641e-04  2.8344161428568292e-02  5.3312645806266427e-02  7.3335133950260784e-02  8.8012927441386474e-02  9.7197808287729157e-02  1.0099361619787821e-01  9.9750793594692105e-02  9.4051531949055106e-02  8.4681864153757613e-02  7.2586265589517418e-02  5.8801321539472019e-02  4.4369270116584501e-02  3.0240021166808628e-02  1.7178989228165770e-02  5.7024514407244429e-03  -3.9427488063814367e-03  -1.1752023184248549e-02  -1.7900961412545179e-02  -2.2669866910191280e-02  -2.6375039146387180e-02  -2.9318362435142693e-02  -3.1757493610614328e-02  -3.3893065053344003e-02  -3.5867633162160011e-02  -3.7771762930934781e-02  -3.9654086595438495e-02  -4.1533250662527638e-02  -4.3410420321053772e-02  -4.5281378651879513e-02  -4.7147631769353562e-02  -4.9026158782890308e-02  -5.0957738565889192e-02  -5.3013919346097581e-02  -5.5302903179179262e-02  -5.7974705471991170e-02  -6.1226234795468272e-02  -6.5307092218452045e-02  -7.0527509642990663e-02  -7.7268826921626052e-02  -8.5997261786951065e-02  -9.7266629767288434e-02  -1.1169860096015227e-01  -1.2984946139518960e-01  -1.5202068270429614e-01  -1.7776072795345646e-01  -2.0589212154617764e-01  -2.3368171118174197e-01  -2.5904053478350769e-01  -2.7711504854659702e-01  -2.8970286912163778e-01  -2.8774732622423355e-01  -2.8701763651183337e-01  -2.4807703022557415e-01  -2.5243793775242102e-01  -2.5004173174712052e-01  -2.3971562004932875e-01  -2.2421763182193372e-01  -2.0324352540581034e-01  -1.7750595358463975e-01  -1.4788719008524134e-01  -1.1551054449249654e-01  -8.1627042668362002e-02  -4.7527843387350339e-02  -1.4463262757681119e-02  1.6421866608538956e-02  4.4137545345388801e-02  6.7884129577375357e-02  8.7076688579819622e-02  1.0136029606225715e-01  1.1061735558869379e-01  1.1496690473023974e-01  1.1475466496956728e-01  1.1053162673055435e-01  1.0301848455560216e-01  9.3054020195701942e-02  8.1528209695446302e-02  6.9305565845843561e-02  5.7149569327604018e-02  4.5662241686671011e-02  3.5251118360228428e-02  2.6128734892003121e-02  1.8340248020675531e-02  1.1807742061108115e-02  6.3781289145405668e-03  1.8648315080933924e-03  -1.9213402208555837e-03  -5.1523994950009432e-03  -7.9725410347767454e-03  -1.0494256233235291e-02  -1.2799206721605998e-02  -1.4942394896153609e-02  -1.6958546219806369e-02  -1.8869823177009640e-02  -2.0694136904134491e-02  -2.2453471350564403e-02  -2.4181816835429640e-02  -2.5932500097545004e-02  -2.7784882970608108e-02  -2.9850570319067161e-02  -3.2279459775611592e-02  -3.5266214076707311e-02  -3.9057956810357487e-02  -4.3964532545813437e-02  -5.0371252783023131e-02  -5.8754163837163510e-02  -6.9678913999199926e-02  -8.3771463172568228e-02  -1.0155201402388457e-01  -1.2323826575612966e-01  -1.4819433713640545e-01  -1.7515686145908679e-01  -2.0119673317344369e-01  -2.2473479853057099e-01  -2.4050517307464431e-01  -2.5216508329344123e-01  -2.4820985215590924e-01  -2.4807703022557415e-01  -2.0758015160483090e-01  -2.4072271490440969e-01  -2.2988415270605195e-01  -2.1696196951105254e-01  -1.9941593191456591e-01  -1.7750912610026262e-01  -1.5176946217124665e-01  -1.2293000072128969e-01  -9.1922772169414552e-02  -5.9800618561072036e-02  -2.7666803443790543e-02  3.3943899970296653e-03  3.2378540190489184e-02  5.8410822115412903e-02  8.0783927840022085e-02  9.8984828861593155e-02  1.1271125475490187e-01  1.2187840153567667e-01  1.2661564676857143e-01  1.2725238925688886e-01  1.2429178705620460e-01  1.1837168741022551e-01  1.1021363057180281e-01  1.0056359278926917e-01  9.0131244520906442e-02  7.9536631697977159e-02  6.9272742622282099e-02  5.9688993958339626e-02  5.0995402418611099e-02  4.3282415153115213e-02  3.6549019417053269e-02  3.0732204493569743e-02  2.5733126733386399e-02  2.1437835750965358e-02  1.7732274256878889e-02  1.4512116555230822e-02  1.1688285235479932e-02  9.1889009140408845e-03  6.9583742450952633e-03  4.9542734143881552e-03  3.1426101420434162e-03  1.4921111787725896e-03  -3.2013131625895330e-05  -1.4744538627852431e-03  -2.8961098519965822e-03  -4.3802792773365200e-03  -6.0388462297211063e-03  -8.0187886211290655e-03  -1.0509592184739010e-02  -1.3752363842216345e-02  -1.8051961153048513e-02  -2.3791576015210980e-02  -3.1449271487001107e-02  -4.1593236461317358e-02  -5.4845682037708322e-02  -7.1689485190544244e-02  -9.2281526973005387e-02  -1.1585148642427147e-01  -1.4115828028333674e-01  -1.6512994765396058e-01  -1.8684406836852166e-01  -2.0034086442114205e-01  -2.1158814927460445e-01  -2.0505057268925553e-01  -2.0758015160483090e-01  -1.6708327298408762e-01  -2.3332890733420175e-01  -2.1377197321256070e-01  -1.9831266366074068e-01  -1.7863983156008298e-01  -1.5561793603258822e-01  -1.2962623867009895e-01  -1.0129003101443465e-01  -7.1389161772420273e-02  -4.0806805538888033e-02  -1.0473025204458211e-02  1.8692498976280121e-02  4.5833175759769987e-02  7.0200749110346974e-02  9.1191321403003719e-02  1.0837139778003746e-01  1.2149371023778682e-01  1.3050265405732717e-01  1.3552905888709682e-01  1.3687394543106063e-01  1.3498127616829345e-01  1.3040063109522301e-01  1.2374232144236200e-01  1.1562925167783571e-01  1.0665123603459283e-01  9.7327605508705242e-02  8.8082478112891147e-02  7.9234330367422723e-02  7.0998525465804124e-02  6.3499321647128085e-02  5.6787137499594312e-02  5.0857367315247821e-02  4.5668149479117931e-02  4.1155658229909561e-02  3.7246306280161283e-02  3.3865759578272654e-02  3.0944888151198509e-02  2.8422935660233063e-02  2.6248255540720841e-02  2.4377046878187276e-02  2.2770532379313937e-02  2.1391031302331082e-02  2.0197299644274552e-02  1.9139441923630183e-02  1.8153548320186629e-02  1.7156098052755992e-02  1.6037978444143210e-02  1.4657797318913144e-02  1.2833861916676948e-02  1.0334043290219854e-02  6.8622049829378372e-03  2.0421831100479564e-03  -4.5998702017151635e-03  -1.3627925111593978e-02  -2.5656650894020548e-02  -4.1137578002620204e-02  -6.0197084421491624e-02  -8.1981740940964234e-02  -1.0536217838404677e-01  -1.2713837358103391e-01  -1.4714733974236111e-01  -1.5842308249273690e-01  -1.6973401160970689e-01  -1.5998343585822886e-01  -1.6708327298408762e-01  -1.2814266669782845e-01  -2.2927880247715127e-01  -2.0119350293026916e-01  -1.8350869257080912e-01  -1.6186445578152248e-01  -1.3777633310564935e-01  -1.1148267007762827e-01  -8.3527077871106040e-02  -5.4568640762107011e-02  -2.5350506308395606e-02  3.3476030313364063e-03  3.0756058898237112e-02  5.6159206976706497e-02  7.8933936055439663e-02  9.8581010178137848e-02  1.1474787377253125e-01  1.2724210880384465e-01  1.3603505378996597e-01  1.4125536749583834e-01  1.4317272439903583e-01  1.4217247805187541e-01  1.3872307378751650e-01  1.3333907051710772e-01  1.2654353068824850e-01  1.1883384608872752e-01  1.1065453784042666e-01  1.0237924121508207e-01  9.4302358939508418e-02  8.6639287928136868e-02  7.9533107520012900e-02  7.3065306028769608e-02  6.7268345456536094e-02  6.2138373183546862e-02  5.7646920275626352e-02  5.3750883893784497e-02  5.0400419722431498e-02  4.7544620667691370e-02  4.5135029265112994e-02  4.3127168509124805e-02  4.1480358716893165e-02  4.0156140489251556e-02  3.9115616378914760e-02  3.8315997588357256e-02  3.7706557826573082e-02  3.7224112205855329e-02  3.6788000743108180e-02  3.6294411400788332e-02  3.5609677690970211e-02  3.4561909318477732e-02  3.2930147672146567e-02  3.0429742392906928e-02  2.6695199030564859e-02  2.1261429195927762e-02  1.3572858709436902e-02  3.0225189098981712e-03  -1.0820732658534074e-02  -2.8084272380086862e-02  -4.7876801282700700e-02  -6.9243602736695165e-02  -8.8842773602686415e-02  -1.0733961040391965e-01  -1.1645629127339097e-01  -1.2827626971002024e-01  -1.1467672137902898e-01  -1.2814266669782845e-01  -9.2254798407490665e-02  -2.2760407362357429e-01  -1.9150482430681334e-01  -1.7199456207294520e-01  -1.4862515442403026e-01  -1.2361872494800039e-01  -9.7072014680107677e-02  -6.9463867425484771e-02  -4.1352505168198300e-02  -1.3363132730137778e-02  1.3853800222688138e-02  3.9660880352617181e-02  6.3469739428634014e-02  8.4772665324196486e-02  1.0316823292736216e-01  1.1837971445267108e-01  1.3026540133553394e-01  1.3882035593077330e-01  1.4416955289845840e-01  1.4655291958304006e-01  1.4630343972942497e-01  1.4382021320593630e-01  1.3953898762037653e-01  1.3390303014484337e-01  1.2733710748508864e-01  1.2022676399044052e-01  1.1290415322163552e-01  1.0564063260052489e-01  9.8645438335580066e-02  9.2069174197525694e-02  8.6010623953183152e-02  8.0525441130690503e-02  7.5635491615824474e-02  7.1337894867554041e-02  6.7613097994715946e-02  6.4431555447482150e-02  6.1758805207455143e-02  5.9558888587931652e-02  5.7796196388461459e-02  5.6435900559840067e-02  5.5443182467870493e-02  5.4781472689531138e-02  5.4409895000325531e-02  5.4280050462733993e-02  5.4332195571267297e-02  5.4490756628222843e-02  5.4658976639101679e-02  5.4712302754064503e-02  5.4489843334131580e-02  5.3783068567223723e-02  5.2320442487111263e-02  4.9749364896648267e-02  4.5616261472933559e-02  3.9375754011188743e-02  3.0426303918619540e-02  1.8344237930500502e-02  2.9742194057965315e-03  -1.4789535328960683e-02  -3.4201697499301034e-02  -5.1750926999766085e-02  -6.8971951407121507e-02  -7.6005166426024770e-02  -8.8757424268071261e-02  -7.0690577867910748e-02  -9.2254798407490665e-02  -6.0798818765323351e-02  -2.2751446937399644e-01  -1.8413047572092650e-01  -1.6316745614661674e-01  -1.3832100762466465e-01  -1.1255744189107668e-01  -8.5831842993507296e-02  -5.8569951208903751e-02  -3.1241715642816120e-02  -4.3702084077291009e-03  2.1506331102569057e-02  4.5865895096968000e-02  6.8232054247547261e-02  8.8199302747213090e-02  1.0545325600272928e-01  1.1978472275009841e-01  1.3109698573214176e-01  1.3940599008826735e-01  1.4483358180240782e-01  1.4759442768134184e-01  1.4797779140459963e-01  1.4632581007149834e-01  1.4301026938870198e-01  1.3840996472547601e-01  1.3289055013755707e-01  1.2678831646916422e-01  1.2039871244017877e-01  1.1396977056