<?xml version="1.0"?>
<VTKFile type="UnstructuredGrid"  version="0.1"  >
<UnstructuredGrid>
<Piece  NumberOfPoints="4225" NumberOfCells="8192">
<Points>
<DataArray  type="Float64"  NumberOfComponents="3"  format="ascii">-1 -1 0  -0.96875 -1 0  -0.9375 -1 0  -0.90625 -1 0  -0.875 -1 0  -0.84375 -1 0  -0.8125 -1 0  -0.78125 -1 0  -0.75 -1 0  -0.71875 -1 0  -0.6875 -1 0  -0.65625 -1 0  -0.625 -1 0  -0.59375 -1 0  -0.5625 -1 0  -0.53125 -1 0  -0.5 -1 0  -0.46875 -1 0  -0.4375 -1 0  -0.40625 -1 0  -0.375 -1 0  -0.34375 -1 0  -0.3125 -1 0  -0.28125 -1 0  -0.25 -1 0  -0.21875 -1 0  -0.1875 -1 0  -0.15625 -1 0  -0.125 -1 0  -0.09375 -1 0  -0.0625 -1 0  -0.03125 -1 0  0 -1 0  0.03125 -1 0  0.0625 -1 0  0.09375 -1 0  0.125 -1 0  0.15625 -1 0  0.1875 -1 0  0.21875 -1 0  0.25 -1 0  0.28125 -1 0  0.3125 -1 0  0.34375 -1 0  0.375 -1 0  0.40625 -1 0  0.4375 -1 0  0.46875 -1 0  0.5 -1 0  0.53125 -1 0  0.5625 -1 0  0.59375 -1 0  0.625 -1 0  0.65625 -1 0  0.6875 -1 0  0.71875 -1 0  0.75 -1 0  0.78125 -1 0  0.8125 -1 0  0.84375 -1 0  0.875 -1 0  0.90625 -1 0  0.9375 -1 0  0.96875 -1 0  1 -1 0  -1 -0.96875 0  -0.96875 -0.96875 0  -0.9375 -0.96875 0  -0.90625 -0.96875 0  -0.875 -0.96875 0  -0.84375 -0.96875 0  -0.8125 -0.96875 0  -0.78125 -0.96875 0  -0.75 -0.96875 0  -0.71875 -0.96875 0  -0.6875 -0.96875 0  -0.65625 -0.96875 0  -0.625 -0.96875 0  -0.59375 -0.96875 0  -0.5625 -0.96875 0  -0.53125 -0.96875 0  -0.5 -0.96875 0  -0.46875 -0.96875 0  -0.4375 -0.96875 0  -0.40625 -0.96875 0  -0.375 -0.96875 0  -0.34375 -0.96875 0  -0.3125 -0.96875 0  -0.28125 -0.96875 0  -0.25 -0.96875 0  -0.21875 -0.96875 0  -0.1875 -0.96875 0  -0.15625 -0.96875 0  -0.125 -0.96875 0  -0.09375 -0.96875 0  -0.0625 -0.96875 0  -0.03125 -0.96875 0  0 -0.96875 0  0.03125 -0.96875 0  0.0625 -0.96875 0  0.09375 -0.96875 0  0.125 -0.96875 0  0.15625 -0.96875 0  0.1875 -0.96875 0  0.21875 -0.96875 0  0.25 -0.96875 0  0.28125 -0.96875 0  0.3125 -0.96875 0  0.34375 -0.96875 0  0.375 -0.96875 0  0.40625 -0.96875 0  0.4375 -0.96875 0  0.46875 -0.96875 0  0.5 -0.96875 0  0.53125 -0.96875 0  0.5625 -0.96875 0  0.59375 -0.96875 0  0.625 -0.96875 0  0.65625 -0.96875 0  0.6875 -0.96875 0  0.71875 -0.96875 0  0.75 -0.96875 0  0.78125 -0.96875 0  0.8125 -0.96875 0  0.84375 -0.96875 0  0.875 -0.96875 0  0.90625 -0.96875 0  0.9375 -0.96875 0  0.96875 -0.96875 0  1 -0.96875 0  -1 -0.9375 0  -0.96875 -0.9375 0  -0.9375 -0.9375 0  -0.90625 -0.9375 0  -0.875 -0.9375 0  -0.84375 -0.9375 0  -0.8125 -0.9375 0  -0.78125 -0.9375 0  -0.75 -0.9375 0  -0.71875 -0.9375 0  -0.6875 -0.9375 0  -0.65625 -0.9375 0  -0.625 -0.9375 0  -0.59375 -0.9375 0  -0.5625 -0.9375 0  -0.53125 -0.9375 0  -0.5 -0.9375 0  -0.46875 -0.9375 0  -0.4375 -0.9375 0  -0.40625 -0.9375 0  -0.375 -0.9375 0  -0.34375 -0.9375 0  -0.3125 -0.9375 0  -0.28125 -0.9375 0  -0.25 -0.9375 0  -0.21875 -0.9375 0  -0.1875 -0.9375 0  -0.15625 -0.9375 0  -0.125 -0.9375 0  -0.09375 -0.9375 0  -0.0625 -0.9375 0  -0.03125 -0.9375 0  0 -0.9375 0  0.03125 -0.9375 0  0.0625 -0.9375 0  0.09375 -0.9375 0  0.125 -0.9375 0  0.15625 -0.9375 0  0.1875 -0.9375 0  0.21875 -0.9375 0  0.25 -0.9375 0  0.28125 -0.9375 0  0.3125 -0.9375 0  0.34375 -0.9375 0  0.375 -0.9375 0  0.40625 -0.9375 0  0.4375 -0.9375 0  0.46875 -0.9375 0  0.5 -0.9375 0  0.53125 -0.9375 0  0.5625 -0.9375 0  0.59375 -0.9375 0  0.625 -0.9375 0  0.65625 -0.9375 0  0.6875 -0.9375 0  0.71875 -0.9375 0  0.75 -0.9375 0  0.78125 -0.9375 0  0.8125 -0.9375 0  0.84375 -0.9375 0  0.875 -0.9375 0  0.90625 -0.9375 0  0.9375 -0.9375 0  0.96875 -0.9375 0  1 -0.9375 0  -1 -0.90625 0  -0.96875 -0.90625 0  -0.9375 -0.90625 0  -0.90625 -0.90625 0  -0.875 -0.90625 0  -0.84375 -0.90625 0  -0.8125 -0.90625 0  -0.78125 -0.90625 0  -0.75 -0.90625 0  -0.71875 -0.90625 0  -0.6875 -0.90625 0  -0.65625 -0.90625 0  -0.625 -0.90625 0  -0.59375 -0.90625 0  -0.5625 -0.90625 0  -0.53125 -0.90625 0  -0.5 -0.90625 0  -0.46875 -0.90625 0  -0.4375 -0.90625 0  -0.40625 -0.90625 0  -0.375 -0.90625 0  -0.34375 -0.90625 0  -0.3125 -0.90625 0  -0.28125 -0.90625 0  -0.25 -0.90625 0  -0.21875 -0.90625 0  -0.1875 -0.90625 0  -0.15625 -0.90625 0  -0.125 -0.90625 0  -0.09375 -0.90625 0  -0.0625 -0.90625 0  -0.03125 -0.90625 0  0 -0.90625 0  0.03125 -0.90625 0  0.0625 -0.90625 0  0.09375 -0.90625 0  0.125 -0.90625 0  0.15625 -0.90625 0  0.1875 -0.90625 0  0.21875 -0.90625 0  0.25 -0.90625 0  0.28125 -0.90625 0  0.3125 -0.90625 0  0.34375 -0.90625 0  0.375 -0.90625 0  0.40625 -0.90625 0  0.4375 -0.90625 0  0.46875 -0.90625 0  0.5 -0.90625 0  0.53125 -0.90625 0  0.5625 -0.90625 0  0.59375 -0.90625 0  0.625 -0.90625 0  0.65625 -0.90625 0  0.6875 -0.90625 0  0.71875 -0.90625 0  0.75 -0.90625 0  0.78125 -0.90625 0  0.8125 -0.90625 0  0.84375 -0.90625 0  0.875 -0.90625 0  0.90625 -0.90625 0  0.9375 -0.90625 0  0.96875 -0.90625 0  1 -0.90625 0  -1 -0.875 0  -0.96875 -0.875 0  -0.9375 -0.875 0  -0.90625 -0.875 0  -0.875 -0.875 0  -0.84375 -0.875 0  -0.8125 -0.875 0  -0.78125 -0.875 0  -0.75 -0.875 0  -0.71875 -0.875 0  -0.6875 -0.875 0  -0.65625 -0.875 0  -0.625 -0.875 0  -0.59375 -0.875 0  -0.5625 -0.875 0  -0.53125 -0.875 0  -0.5 -0.875 0  -0.46875 -0.875 0  -0.4375 -0.875 0  -0.40625 -0.875 0  -0.375 -0.875 0  -0.34375 -0.875 0  -0.3125 -0.875 0  -0.28125 -0.875 0  -0.25 -0.875 0  -0.21875 -0.875 0  -0.1875 -0.875 0  -0.15625 -0.875 0  -0.125 -0.875 0  -0.09375 -0.875 0  -0.0625 -0.875 0  -0.03125 -0.875 0  0 -0.875 0  0.03125 -0.875 0  0.0625 -0.875 0  0.09375 -0.875 0  0.125 -0.875 0  0.15625 -0.875 0  0.1875 -0.875 0  0.21875 -0.875 0  0.25 -0.875 0  0.28125 -0.875 0  0.3125 -0.875 0  0.34375 -0.875 0  0.375 -0.875 0  0.40625 -0.875 0  0.4375 -0.875 0  0.46875 -0.875 0  0.5 -0.875 0  0.53125 -0.875 0  0.5625 -0.875 0  0.59375 -0.875 0  0.625 -0.875 0  0.65625 -0.875 0  0.6875 -0.875 0  0.71875 -0.875 0  0.75 -0.875 0  0.78125 -0.875 0  0.8125 -0.875 0  0.84375 -0.875 0  0.875 -0.875 0  0.90625 -0.875 0  0.9375 -0.875 0  0.96875 -0.875 0  1 -0.875 0  -1 -0.84375 0  -0.96875 -0.84375 0  -0.9375 -0.84375 0  -0.90625 -0.84375 0  -0.875 -0.84375 0  -0.84375 -0.84375 0  -0.8125 -0.84375 0  -0.78125 -0.84375 0  -0.75 -0.84375 0  -0.71875 -0.84375 0  -0.6875 -0.84375 0  -0.65625 -0.84375 0  -0.625 -0.84375 0  -0.59375 -0.84375 0  -0.5625 -0.84375 0  -0.53125 -0.84375 0  -0.5 -0.84375 0  -0.46875 -0.84375 0  -0.4375 -0.84375 0  -0.40625 -0.84375 0  -0.375 -0.84375 0  -0.34375 -0.84375 0  -0.3125 -0.84375 0  -0.28125 -0.84375 0  -0.25 -0.84375 0  -0.21875 -0.84375 0  -0.1875 -0.84375 0  -0.15625 -0.84375 0  -0.125 -0.84375 0  -0.09375 -0.84375 0  -0.0625 -0.84375 0  -0.03125 -0.84375 0  0 -0.84375 0  0.03125 -0.84375 0  0.0625 -0.84375 0  0.09375 -0.84375 0  0.125 -0.84375 0  0.15625 -0.84375 0  0.1875 -0.84375 0  0.21875 -0.84375 0  0.25 -0.84375 0  0.28125 -0.84375 0  0.3125 -0.84375 0  0.34375 -0.84375 0  0.375 -0.84375 0  0.40625 -0.84375 0  0.4375 -0.84375 0  0.46875 -0.84375 0  0.5 -0.84375 0  0.53125 -0.84375 0  0.5625 -0.84375 0  0.59375 -0.84375 0  0.625 -0.84375 0  0.65625 -0.84375 0  0.6875 -0.84375 0  0.71875 -0.84375 0  0.75 -0.84375 0  0.78125 -0.84375 0  0.8125 -0.84375 0  0.84375 -0.84375 0  0.875 -0.84375 0  0.90625 -0.84375 0  0.9375 -0.84375 0  0.96875 -0.84375 0  1 -0.84375 0  -1 -0.8125 0  -0.96875 -0.8125 0  -0.9375 -0.8125 0  -0.90625 -0.8125 0  -0.875 -0.8125 0  -0.84375 -0.8125 0  -0.8125 -0.8125 0  -0.78125 -0.8125 0  -0.75 -0.8125 0  -0.71875 -0.8125 0  -0.6875 -0.8125 0  -0.65625 -0.8125 0  -0.625 -0.8125 0  -0.59375 -0.8125 0  -0.5625 -0.8125 0  -0.53125 -0.8125 0  -0.5 -0.8125 0  -0.46875 -0.8125 0  -0.4375 -0.8125 0  -0.40625 -0.8125 0  -0.375 -0.8125 0  -0.34375 -0.8125 0  -0.3125 -0.8125 0  -0.28125 -0.8125 0  -0.25 -0.8125 0  -0.21875 -0.8125 0  -0.1875 -0.8125 0  -0.15625 -0.8125 0  -0.125 -0.8125 0  -0.09375 -0.8125 0  -0.0625 -0.8125 0  -0.03125 -0.8125 0  0 -0.8125 0  0.03125 -0.8125 0  0.0625 -0.8125 0  0.09375 -0.8125 0  0.125 -0.8125 0  0.15625 -0.8125 0  0.1875 -0.8125 0  0.21875 -0.8125 0  0.25 -0.8125 0  0.28125 -0.8125 0  0.3125 -0.8125 0  0.34375 -0.8125 0  0.375 -0.8125 0  0.40625 -0.8125 0  0.4375 -0.8125 0  0.46875 -0.8125 0  0.5 -0.8125 0  0.53125 -0.8125 0  0.5625 -0.8125 0  0.59375 -0.8125 0  0.625 -0.8125 0  0.65625 -0.8125 0  0.6875 -0.8125 0  0.71875 -0.8125 0  0.75 -0.8125 0  0.78125 -0.8125 0  0.8125 -0.8125 0  0.84375 -0.8125 0  0.875 -0.8125 0  0.90625 -0.8125 0  0.9375 -0.8125 0  0.96875 -0.8125 0  1 -0.8125 0  -1 -0.78125 0  -0.96875 -0.78125 0  -0.9375 -0.78125 0  -0.90625 -0.78125 0  -0.875 -0.78125 0  -0.84375 -0.78125 0  -0.8125 -0.78125 0  -0.78125 -0.78125 0  -0.75 -0.78125 0  -0.71875 -0.78125 0  -0.6875 -0.78125 0  -0.65625 -0.78125 0  -0.625 -0.78125 0  -0.59375 -0.78125 0  -0.5625 -0.78125 0  -0.53125 -0.78125 0  -0.5 -0.78125 0  -0.46875 -0.78125 0  -0.4375 -0.78125 0  -0.40625 -0.78125 0  -0.375 -0.78125 0  -0.34375 -0.78125 0  -0.3125 -0.78125 0  -0.28125 -0.78125 0  -0.25 -0.78125 0  -0.21875 -0.78125 0  -0.1875 -0.78125 0  -0.15625 -0.78125 0  -0.125 -0.78125 0  -0.09375 -0.78125 0  -0.0625 -0.78125 0  -0.03125 -0.78125 0  0 -0.78125 0  0.03125 -0.78125 0  0.0625 -0.78125 0  0.09375 -0.78125 0  0.125 -0.78125 0  0.15625 -0.78125 0  0.1875 -0.78125 0  0.21875 -0.78125 0  0.25 -0.78125 0  0.28125 -0.78125 0  0.3125 -0.78125 0  0.34375 -0.78125 0  0.375 -0.78125 0  0.40625 -0.78125 0  0.4375 -0.78125 0  0.46875 -0.78125 0  0.5 -0.78125 0  0.53125 -0.78125 0  0.5625 -0.78125 0  0.59375 -0.78125 0  0.625 -0.78125 0  0.65625 -0.78125 0  0.6875 -0.78125 0  0.71875 -0.78125 0  0.75 -0.78125 0  0.78125 -0.78125 0  0.8125 -0.78125 0  0.84375 -0.78125 0  0.875 -0.78125 0  0.90625 -0.78125 0  0.9375 -0.78125 0  0.96875 -0.78125 0  1 -0.78125 0  -1 -0.75 0  -0.96875 -0.75 0  -0.9375 -0.75 0  -0.90625 -0.75 0  -0.875 -0.75 0  -0.84375 -0.75 0  -0.8125 -0.75 0  -0.78125 -0.75 0  -0.75 -0.75 0  -0.71875 -0.75 0  -0.6875 -0.75 0  -0.65625 -0.75 0  -0.625 -0.75 0  -0.59375 -0.75 0  -0.5625 -0.75 0  -0.53125 -0.75 0  -0.5 -0.75 0  -0.46875 -0.75 0  -0.4375 -0.75 0  -0.40625 -0.75
[...]
<PointData  Scalars="f_15"> 
<DataArray  type="Float64"  Name="f_15"  format="ascii">-4.8522098359922800e-01  -4.8055929102806411e-01  -4.6675335954577463e-01  -4.4433374335676884e-01  -4.1416201573812422e-01  -3.7739765926172575e-01  -3.3545350752927278e-01  -2.8994145076929195e-01  -2.4261049179961394e-01  -1.9527953282993599e-01  -1.4976747606995511e-01  -1.0782332433750215e-01  -7.1058967861103606e-02  -4.0887240242459065e-02  -1.8467624053453219e-02  -4.6616925711639454e-03  0.0000000000000000e+00  -4.6616925711639454e-03  -1.8467624053453251e-02  -4.0887240242459093e-02  -7.1058967861103661e-02  -1.0782332433750220e-01  -1.4976747606995522e-01  -1.9527953282993607e-01  -2.4261049179961400e-01  -2.8994145076929195e-01  -3.3545350752927272e-01  -3.7739765926172586e-01  -4.1416201573812422e-01  -4.4433374335676884e-01  -4.6675335954577468e-01  -4.8055929102806411e-01  -4.8522098359922800e-01  -4.8055929102806411e-01  -4.6675335954577468e-01  -4.4433374335676884e-01  -4.1416201573812422e-01  -3.7739765926172586e-01  -3.3545350752927272e-01  -2.8994145076929195e-01  -2.4261049179961400e-01  -1.9527953282993607e-01  -1.4976747606995522e-01  -1.0782332433750220e-01  -7.1058967861103661e-02  -4.0887240242459093e-02  -1.8467624053453251e-02  -4.6616925711639454e-03  0.0000000000000000e+00  -4.6616925711639454e-03  -1.8467624053453219e-02  -4.0887240242459065e-02  -7.1058967861103606e-02  -1.0782332433750215e-01  -1.4976747606995511e-01  -1.9527953282993599e-01  -2.4261049179961394e-01  -2.8994145076929195e-01  -3.3545350752927278e-01  -3.7739765926172575e-01  -4.1416201573812422e-01  -4.4433374335676884e-01  -4.6675335954577463e-01  -4.8055929102806411e-01  -4.8522098359922800e-01  -4.8055929102806411e-01  -3.7617829573373274e-01  -2.9232192562180692e-01  -1.8719134985363264e-01  -7.2986258443208565e-02  4.5751526643997426e-02  1.6578337394848691e-01  2.8446808582397298e-01  3.9939550245246047e-01  5.0826082247864968e-01  6.0884224615722493e-01  6.9903126955600980e-01  7.7688900047632603e-01  8.4071276461483846e-01  8.8910270616273757e-01  9.2102083343597130e-01  9.3583717415335033e-01  9.3335906135338986e-01  9.1384134371256254e-01  8.7797647791206312e-01  8.2686514439922365e-01  7.6196907239656197e-01  6.8504921731362856e-01  5.9809310034200913e-01  5.0323595341167271e-01  4.0268022176418949e-01  2.9861789928974514e-01  1.9315930435462847e-01  8.8271126974522107e-02  -1.4274495383075804e-02  -1.1293888659370599e-01  -2.0644339043384891e-01  -2.9378364086853626e-01  -3.7423179744325841e-01  -4.4732730230730955e-01  -5.1285691944569911e-01  -5.7082542979666995e-01  -6.2141876273837127e-01  -6.6496215067580022e-01  -7.0187614096738671e-01  -7.3263375113125584e-01  -7.5772162615015037e-01  -7.7760779855939377e-01  -7.9271751659837608e-01  -8.0341783373382925e-01  -8.1001030536178387e-01  -8.1273051172156896e-01  -8.1175222878536824e-01  -8.0719415570562036e-01  -7.9912704366894793e-01  -7.8758002255996029e-01  -7.7254559332286898e-01  -7.5398435841182254e-01  -7.3183086449090484e-01  -7.0600692882462435e-01  -6.7643487035139560e-01  -6.4310656014667744e-01  -6.0602949552855268e-01  -5.6574867352177283e-01  -5.2209972392734338e-01  -4.7922645104775408e-01  -4.3159738581817819e-01  -4.1000153836507180e-01  -3.5693613126698953e-01  -4.8055929102806411e-01  -4.6675335954577463e-01  -3.9208375673344537e-01  -3.3479018409207262e-01  -2.5964855095342915e-01  -1.7976641776620711e-01  -9.6461440121390546e-02  -1.2109220329757090e-02  7.1268026059322406e-02  1.5184635707717745e-01  2.2795027216336894e-01  2.9803450730205017e-01  3.6069138057028988e-01  4.1467213717725443e-01  4.5891476885657917e-01  4.9257268277312427e-01  5.1504028344935049e-01  5.2597224684287547e-01  5.2529451737000177e-01  5.1320558063507349e-01  4.9016779896126839e-01  4.5688909260897981e-01  4.1429633275638672e-01  3.6350201539690363e-01  3.0576636296395393e-01  2.4245671844206762e-01  1.7500615541149026e-01  1.0487262425323599e-01  3.3499763588857132e-02  -3.7719953800308841e-02  -1.0747913874759096e-01  -1.7458597765841832e-01  -2.3799072355219608e-01  -2.9680751586022974e-01  -3.5033088703868998e-01  -3.9804630230251503e-01  -4.3963436731742600e-01  -4.7496843645603570e-01  -5.0410581134200949e-01  -5.2727274545504843e-01  -5.4484387698136094e-01  -5.5731656730800050e-01  -5.6528100715768081e-01  -5.6938678243096952e-01  -5.7030708082863424e-01  -5.6870170458607294e-01  -5.6518069836313334e-01  -5.6027040913779569e-01  -5.5438432919316871e-01  -5.4780079149682093e-01  -5.4064975110665225e-01  -5.3291016844230432e-01  -5.2441926192002608e-01  -5.1489412931590062e-01  -5.0396532604413047e-01  -4.9122508554445832e-01  -4.7627742138991402e-01  -4.5884521216722030e-01  -4.3872917910317855e-01  -4.1640591908417401e-01  -3.9150292044642615e-01  -3.6881858311211485e-01  -3.3965028864502234e-01  -3.4345005109477134e-01  -2.7692992374980707e-01  -4.6675335954577463e-01  -4.4433374335676884e-01  -4.2387695549188514e-01  -3.4848364231258994e-01  -2.7037757116748029e-01  -1.8845131809133031e-01  -1.0401438498775152e-01  -1.9055891483668166e-02  6.4732624310454775e-02  1.4573564899812594e-01  2.2241298407734272e-01  2.9330181114145626e-01  3.5703483202147507e-01  4.1236975275532894e-01  4.5822511668350069e-01  4.9371760264806352e-01  5.1819632525365522e-01  5.3127040324878716e-01  5.3282675131676827e-01  5.2303616173894563e-01  5.0234676841922743e-01  4.7146522845328215e-01  4.3132693887995299e-01  3.8305753660905839e-01  3.2792840541997231e-01  2.6730917329804732e-01  2.0261997084045921e-01  1.3528587062847461e-01  6.6695298960369853e-02  -1.8363919010676729e-03  -6.9097573226880954e-02  -1.3400501220861746e-01  -1.9562262192456628e-01  -2.5317446690604006e-01  -3.0605219291903346e-01  -3.5381705057173740e-01  -3.9619665556731215e-01  -4.3307670247424868e-01  -4.6448791693202335e-01  -4.9058873949009468e-01  -5.1164435710952172e-01  -5.2800294592844987e-01  -5.4007006416752079e-01  -5.4828233545429172e-01  -5.5308154084269001e-01  -5.5489030595787892e-01  -5.5409042762482719e-01  -5.5100485385364439e-01  -5.4588408076272688e-01  -5.3889766379192627e-01  -5.3013127951415906e-01  -5.1958979025795737e-01  -5.0720659560909942e-01  -4.9285984999376820e-01  -4.7639531869861823e-01  -4.5766026918092106e-01  -4.3653401763904437e-01  -4.1302191285510309e-01  -3.8716282397626461e-01  -3.5970412553827713e-01  -3.3012323595804172e-01  -3.0401857528277143e-01  -2.6882445477890821e-01  -2.7449125738028529e-01  -1.7166901925704500e-01  -4.4433374335676884e-01  -4.1416201573812422e-01  -4.6493234175985809e-01  -3.7205643862091836e-01  -2.9942421089540860e-01  -2.2231785707571558e-01  -1.4488773866621185e-01  -6.7932077839966715e-02  7.2734267408021535e-03  7.9478152271119581e-02  1.4746074718837915e-01  2.1006169239453062e-01  2.6620822124138332e-01  3.1494105776398246e-01  3.5544118193184132e-01  3.8705489534134596e-01  4.0931514922091206e-01  4.2195742211645632e-01  4.2492878764370290e-01  4.1838945604875288e-01  4.0270653418181057e-01  3.7844042456475990e-01  3.4632461564886990e-01  3.0724009700063104e-01  2.6218573626283975e-01  2.1224614218826082e-01  1.5855840531407875e-01  1.0227906463038944e-01  4.4552399044697669e-02  -1.3518979015726563e-02  -7.0900500659675555e-02  -1.2664836831379428e-01  -1.7992818396795962e-01  -2.3002912818404400e-01  -2.7637345812272857e-01  -3.1852122647142483e-01  -3.5617021973011193e-01  -3.8915130725879460e-01  -4.1741948226456632e-01  -4.4104107663431685e-01  -4.6017769662622665e-01  -4.7506759797512882e-01  -4.8600523232253096e-01  -4.9331982604176511e-01  -4.9735381764725117e-01  -4.9844209944320056e-01  -4.9689293176752924e-01  -4.9297148283469899e-01  -4.8688684934858895e-01  -4.7878343036967325e-01  -4.6873736990532855e-01  -4.5675872958737251e-01  -4.4279981889976883e-01  -4.2677023510222334e-01  -4.0855799546389654e-01  -3.8806107215167585e-01  -3.6521156605644972e-01  -3.4006831242174657e-01  -3.1268133502515416e-01  -2.8385168580420245e-01  -2.5268910647364151e-01  -2.2546510273123502e-01  -1.8560344471844872e-01  -1.9429305661560220e-01  -5.7752480470720569e-02  -4.1416201573812422e-01  -3.7739765926172575e-01  -5.0823015054122467e-01  -3.9691881042485072e-01  -3.2795380551880421e-01  -2.5228638688551236e-01  -1.7833540000897025e-01  -1.0548620048401457e-01  -3.4821298429421749e-02  3.2730037107732639e-02  9.6188007323622648e-02  1.5460182847625231e-01  2.0707715297999829e-01  2.5280598406520360e-01  2.9109334534962722e-01  3.2138127766701435e-01  3.4326915984728612e-01  3.5652907621622926e-01  3.6111526343764583e-01  3.5716680853133631e-01  3.4500341618952751e-01  3.2511432646597788e-01  2.9814114458131219e-01  2.6485552783922700e-01  2.2613313134936167e-01  1.8292515632401674e-01  1.3622899443715661e-01  8.7059195475933729e-02  3.6419909107322138e-02  -1.4720395908526845e-02  -6.5451263105512386e-02  -1.1493921789123727e-01  -1.6244307644327799e-01  -2.0732541986329633e-01  -2.4906015311670307e-01  -2.8723610840881958e-01  -3.2155679530207010e-01  -3.5183640143146361e-01  -3.7799234988672098e-01  -4.0003471464540835e-01  -4.1805303048617592e-01  -4.3220098871013396e-01  -4.4267974153347539e-01  -4.4972044880660222e-01  -4.5356691222049889e-01  -4.5445897886047598e-01  -4.5261757503546524e-01  -4.4823202162943715e-01  -4.4145040690128806e-01  -4.3237352746339747e-01  -4.2105298804090929e-01  -4.0749377013641014e-01  -3.9166161525450294e-01  -3.7349546900262515e-01  -3.5292422851051530e-01  -3.2989224583120186e-01  -3.0437305645518836e-01  -2.7645723190581600e-01  -2.4617039216258432e-01  -2.1432696409502341e-01  -1.7961103573869799e-01  -1.4902499299808972e-01  -1.0194808383792023e-01  -1.1159324132303096e-01  5.9841998102561522e-02  -3.7739765926172575e-01  -3.3545350752927278e-01  -5.5064482680575244e-01  -4.2129870331050767e-01  -3.5684694877290030e-01  -2.8292163632593448e-01  -2.1254778423550497e-01  -1.4376333593205265e-01  -7.7592688246879038e-02  -1.4673154664754579e-02  4.4223898327668085e-02  9.8344117629181035e-02  1.4696869659044995e-01  1.8944686884433762e-01  2.2522050738702812e-01  2.5384525928776941e-01  2.7500739565698423e-01  2.8853609496814353e-01  2.9441058298016076e-01  2.9276194131565803e-01  2.8386943512248264e-01  2.6815172154369199e-01  2.4615335185205683e-01  2.1852741561495381e-01  1.8601514013512899e-01  1.4942352584802485e-01  1.0960193588996228e-01  6.7418657526491357e-02  2.3738228414691347e-02  -2.0599696533624534e-02  -6.4799377185891641e-02  -1.0812543031312580e-01  -1.4991634144299315e-01  -1.8959481096027167e-01  -2.2667477610979217e-01  -2.6076508715405061e-01  -2.9156984194377944e-01  -3.1888556645525035e-01  -3.4259541123122439e-01  -3.6266075222548139e-01  -3.7911052713688470e-01  -3.9202887578366080e-01  -4.0154154039375117e-01  -4.0780171201757803e-01  -4.1097585107711054e-01  -4.1123022084912292e-01  -4.0871865810986957e-01  -4.0357229089541602e-01  -3.9589164787233011e-01  -3.8574176164714852e-01  -3.7315055096507066e-01  -3.5811089306393418e-01  -3.4058642381634885e-01  -3.2052141128511924e-01  -2.9785347625015490e-01  -2.7253405967103111e-01  -2.4453313500175283e-01  -2.1392472974665039e-01  -1.8066183484530671e-01  -1.4553541706934528e-01  -1.0677426821317919e-01  -7.2184119925196993e-02  -1.7081254851466346e-02  -2.7153976669965930e-02  1.7886049265980461e-01  -3.3545350752927278e-01  -2.8994145076929195e-01  -5.9071994810508988e-01  -4.4384635660999600e-01  -3.8455396644576656e-01  -3.1218917170267463e-01  -2.4488546488308677e-01  -1.7943951684223497e-01  -1.1691578093560226e-01  -5.7716778913028163e-02  -2.4540795438251039e-03  4.8277142646012940e-02  9.3898797570526396e-02  1.3388469421797627e-01  1.6778280435456813e-01  1.9523451500140124e-01  2.1598962086181359e-01  2.2991711712628371e-01  2.3701158903823305e-01  2.3739504887179838e-01  2.3131425061440594e-01  2.1913368807141936e-01  2.0132470237153982e-01  1.7845129008847810e-01  1.5115334571411046e-01  1.2012814309112246e-01  8.6110884216157701e-02  4.9855108270557828e-02  1.2113679265797466e-02  -2.6379021169792176e-02  -6.4923184993865568e-02  -1.0286754465068461e-01  -1.3962091526811987e-01  -1.7466109823511833e-01  -2.0754102475710601e-01  -2.3789209373100850e-01  -2.6542474140253458e-01  -2.8992635342916556e-01  -3.1125671725942872e-01  -3.2934127477224973e-01  -3.4416252494641708e-01  -3.5574996643769791e-01  -3.6416904810595246e-01  -3.6950960847279246e-01  -3.7187433346956006e-01  -3.7136774409151935e-01  -3.6808624764280057e-01  -3.6210971341805276e-01  -3.5349504094645412e-01  -3.4227206051095055e-01  -3.2844208663277358e-01  -3.1197928441399980e-01  -2.9283491601490058e-01  -2.7094457798467869e-01  -2.4623715059525531e-01  -2.1865053273881144e-01  -1.8812842730973825e-01  -1.5470499933430515e-01  -1.1824051924360561e-01  -7.9491294073141511e-02  -3.6232299617407850e-02  2.8730194887042339e-03  6.6551233092471684e-02  5.6482653616411665e-02  2.9638652693449602e-01  -2.8994145076929195e-01  -2.4261049179961394e-01  -6.2777471371401772e-01  -4.6390229704681157e-01  -4.1039704911675251e-01  -3.3965271615383852e-01  -2.7528198946702148e-01  -2.1284816901452677e-01  -1.5354095388593691e-01  -9.7581521956615819e-02  -4.5463749487746098e-02  2.3446026783998791e-03  4.5380746172102721e-02  8.3223056764894013e-02  1.1550995205318895e-01  1.4195708514521249e-01  1.6237032223785061e-01  1.7665497677159972e-01  1.8482126182285649e-01  1.8698588947999187e-01  1.8336998070778754e-01  1.7429341792430381e-01  1.6016607349039147e-01  1.4147630862901214e-01  1.1877738725608901e-01  9.2672356851791635e-02  6.3798111014313583e-02  3.2809205027943288e-02  3.6206303282990837e-04  -3.2899947802216604e-02  -6.6360095105469169e-02  -9.9440172677051200e-02  -1.3161041329385947e-01  -1.6239722596544087e-01  -1.9138864116614357e-01  -2.1823739752019874e-01  -2.4266171982184989e-01  -2.6444384754430950e-01  -2.8342651179573852e-01  -2.9950754549508168e-01  -3.1263295464928714e-01  -3.2278873785696821e-01  -3.2999188252498329e-01  -3.3428089115427878e-01  -3.3570632110746085e-01  -3.3432170467002809e-01  -3.3017532109858344e-01  -3.2330315806736870e-01  -3.1372344703584071e-01  -3.0143300813867763e-01  -2.8640564640958555e-01  -2.6859266677107996e-01  -2.4792551877037830e-01  -2.2432059938761045e-01  -1.9768483386399271e-01  -1.6792744192209008e-01  -1.3495018856096896e-01  -9.8732551556499570e-02  -5.9032737771556668e-02  -1.6567551172636665e-02  3.1325527317829241e-02  7.5110880260191082e-02  1.4746829838444950e-01  1.3761922482730887e-01  4.1014148075333379e-01  -2.4261049179961394e-01  -1.9527953282993599e-01  -6.6153580811826074e-01  -4.8125859216792194e-01  -4.3401049508798173e-01  -3.6493358860228142e-01  -3.0337407133385347e-01  -2.4366115025883700e-01  -1.8718407337977433e-01  -1.3402345280174466e-01  -8.4592166383981746e-02  -3.9259842812449104e-02  1.6017481113735257e-03  3.7655342916106851e-02  6.8613086121257702e-02  9.4251544522714670e-02  1.1442270103351973e-01  1.2906184807067206e-01  1.3819220659376499e-01  1.4192639383284536e-01  1.4046476920243342e-01  1.3409092207051668e-01  1.2316452043975785e-01  1.0811196726733451e-01  8.9415247836484357e-02  6.7599532861056480e-02  4.3219998308010640e-02  1.6848426535536098e-02  -1.0939977816611815e-02  -3.9579076348692829e-02  -6.8523245831631677e-02  -9.7257451984236076e-02  -1.2530571472272076e-01  -1.5223778090385018e-01  -1.7767388662163641e-01  -2.0128757357662655e-01  -2.2280655071137775e-01  -2.4201170102480440e-01  -2.5873433467126900e-01  -2.7285190730613312e-01  -2.8428239909222641e-01  -2.9297767285462051e-01  -2.9891607647442026e-01  -3.0209467331205092e-01  -3.0252138931431305e-01  -3.0020748108538492e-01  -2.9516060107544051e-01  -2.8737881195422649e-01  -2.7684576275812434e-01  -2.6352727285823579e-01  -2.4736941072652560e-01  -2.2829816012472648e-01  -2.0622053622097666e-01  -1.8102725441438935e-01  -1.5259541839916627e-01  -1.2079702288038147e-01  -8.5484013190686700e-02  -4.6574517994300769e-02  -3.7245007321639249e-03  4.2390823748122967e-02  9.4840915891169913e-02  1.4324992340879605e-01  2.2405496476273432e-01  2.1455985575872338e-01  5.1780697747167082e-01  -1.9527953282993599e-01  -1.4976747606995511e-01  -6.9194050995403633e-01  -4.9600164983074407e-01  -4.5526903234693750e-01  -3.8787164539722524e-01  -3.2902163024965514e-01  -2.7180492987656757e-01  -2.1786071581087713e-01  -1.6715814843240476e-01  -1.2005874378857551e-01  -7.6857974139212831e-02  -3.7856812768077945e-02  -3.3248714105389965e-03  2.6510181337297947e-02  5.1475290549081884e-02  7.1461046712971210e-02  8.6428193238111892e-02  9.6411457026743974e-02  1.0152074241431132e-01  1.0193981413275276e-01  9.7922593655081325e-02  8.9787340894782339e-02  7.7908988723281655e-02  6.2710024344871412e-02  4.4650277088506163e-02  2.4216063226304006e-02  1.9090682027225047e-03  -2.1764607179961464e-02  -4.6304904019923036e-02  -7.1227423122763839e-02  -9.6071950812216672e-02  -1.2040966831510172e-01  -1.4384888862288164e-01  -1.6603921754874781e-01  -1.8667408440885128e-01  -2.0549165606188502e-01  -2.2227417723517881e-01  -2.3684585756111229e-01  -2.4906943855583791e-01  -2.5884165280729227e-01  -2.6608777532528921e-01  -2.7075554909105259e-01  -2.7280872280869772e-01  -2.7222051591531715e-01  -2.6896724722366683e-01  -2.6302242534016668e-01  -2.5435149991182554e-01  -2.4290749879885629e-01  -2.2862765995913445e-01  -2.1143116461296912e-01  -1.9121794527104946e-01  -1.6786848497890045e-01  -1.4124461267583224e-01  -1.1118984033259274e-01  -7.7535177687676773e-02  -4.0080282707258677e-02  1.3194654604721417e-03  4.7104509352477661e-02  9.6643743927909628e-02  1.5336875302848244e-01  2.0614436546634382e-01  2.9483808943591500e-01  2.8577744932196730e-01  6.1718147158386460e-01  -1.4976747606995511e-01  -1.0782332433750215e-01  -7.1902176610087731e-01  -5.0840346992497554e-01  -4.7420164620457933e-01  -4.0844042854004120e-01  -3.5217615244930733e-01  -2.9724941978300684e-01  -2.4558161542022131e-01  -1.9705057831410400e-01  -1.5198829029678193e-01  -1.1063452498273135e-01  -7.3235675849017412e-02  -4.0007416585100299e-02  -1.1128543601875958e-02  1.3269373427829878e-02  3.3109057544891185e-02  4.8372714712923821e-02  5.9105054084553126e-02  6.5414200109206955e-02  6.7470557627008682e-02  6.5503756812673508e-02  5.9797860796727581e-02  5.0685077461754401e-02  3.8538252092791735e-02  2.3762464288946256e-02  6.7860513940100984e-03  -1.1948595278500769e-02  -3.1994154054998385e-02  -5.2907101293172706e-02  -7.4255789897755650e-02  -9.5627640076588652e-02  -1.1663526423724971e-01  -1.3692137925163386e-01  -1.5616241721652521e-01  -1.7407078223160877e-01  -1.9039575541498491e-01  -2.0492308482626273e-01  -2.1747334690102366e-01  -2.2789919807064418e-01  -2.3608167053953255e-01  -2.4192569722629462e-01  -2.4535506480018915e-01  -2.4630701980866559e-01  -2.4472673944467394e-01  -2.4056189569988579e-01  -2.3375750428337730e-01  -2.2425124476420463e-01  -2.1196938184311909e-01  -1.9682338931031645e-01  -1.7870730577495444e-01  -1.5749580358332249e-01  -1.3304283332905048e-01  -1.0518089268473220e-01  -7.3719454951075000e-02  -3.8448626032966608e-02  8.8250731348212008e-04  4.4478782740104701e-02  9.2866609432240552e-02  1.4546255761417579e-01  2.0600070372907966e-01  2.6271500412808640e-01  3.5843279718633214e-01  3.4986081689994791e-01  7.0616309077362127e-01  -1.0782332433750215e-01  -7.1058967861103606e-02  -7.4283870038685573e-01  -5.1883698027301062e-01  -4.9092474437884698e-01  -4.2669950023648917e-01  -3.7285965803633403e-01  -3.2002022934762403e-01  -2.7039909928766265e-01  -2.2379497751395844e-01  -1.8052477999410182e-01  -1.4078578804494934e-01  -1.0478196746775063e-01  -7.2685624903177898e-02  -4.4635575305130848e-02  -2.0728972146379188e-02  -1.0161157821673217e-03  1.4503481517408278e-02  2.5883330478837781e-02  3.3230562323307899e-02  3.6704888438805323e-02  3.6516035067608608e-02  3.2919767033918260e-02  2.6212703065168649e-02  1.6726128657881725e-02  4.8190661988181472e-03  -9.1291398292992539e-03  -2.47264520966