<?xml version="1.0"?>
<VTKFile type="UnstructuredGrid"  version="0.1"  >
<UnstructuredGrid>
<Piece  NumberOfPoints="4225" NumberOfCells="8192">
<Points>
<DataArray  type="Float64"  NumberOfComponents="3"  format="ascii">-1 -1 0  -0.96875 -1 0  -0.9375 -1 0  -0.90625 -1 0  -0.875 -1 0  -0.84375 -1 0  -0.8125 -1 0  -0.78125 -1 0  -0.75 -1 0  -0.71875 -1 0  -0.6875 -1 0  -0.65625 -1 0  -0.625 -1 0  -0.59375 -1 0  -0.5625 -1 0  -0.53125 -1 0  -0.5 -1 0  -0.46875 -1 0  -0.4375 -1 0  -0.40625 -1 0  -0.375 -1 0  -0.34375 -1 0  -0.3125 -1 0  -0.28125 -1 0  -0.25 -1 0  -0.21875 -1 0  -0.1875 -1 0  -0.15625 -1 0  -0.125 -1 0  -0.09375 -1 0  -0.0625 -1 0  -0.03125 -1 0  0 -1 0  0.03125 -1 0  0.0625 -1 0  0.09375 -1 0  0.125 -1 0  0.15625 -1 0  0.1875 -1 0  0.21875 -1 0  0.25 -1 0  0.28125 -1 0  0.3125 -1 0  0.34375 -1 0  0.375 -1 0  0.40625 -1 0  0.4375 -1 0  0.46875 -1 0  0.5 -1 0  0.53125 -1 0  0.5625 -1 0  0.59375 -1 0  0.625 -1 0  0.65625 -1 0  0.6875 -1 0  0.71875 -1 0  0.75 -1 0  0.78125 -1 0  0.8125 -1 0  0.84375 -1 0  0.875 -1 0  0.90625 -1 0  0.9375 -1 0  0.96875 -1 0  1 -1 0  -1 -0.96875 0  -0.96875 -0.96875 0  -0.9375 -0.96875 0  -0.90625 -0.96875 0  -0.875 -0.96875 0  -0.84375 -0.96875 0  -0.8125 -0.96875 0  -0.78125 -0.96875 0  -0.75 -0.96875 0  -0.71875 -0.96875 0  -0.6875 -0.96875 0  -0.65625 -0.96875 0  -0.625 -0.96875 0  -0.59375 -0.96875 0  -0.5625 -0.96875 0  -0.53125 -0.96875 0  -0.5 -0.96875 0  -0.46875 -0.96875 0  -0.4375 -0.96875 0  -0.40625 -0.96875 0  -0.375 -0.96875 0  -0.34375 -0.96875 0  -0.3125 -0.96875 0  -0.28125 -0.96875 0  -0.25 -0.96875 0  -0.21875 -0.96875 0  -0.1875 -0.96875 0  -0.15625 -0.96875 0  -0.125 -0.96875 0  -0.09375 -0.96875 0  -0.0625 -0.96875 0  -0.03125 -0.96875 0  0 -0.96875 0  0.03125 -0.96875 0  0.0625 -0.96875 0  0.09375 -0.96875 0  0.125 -0.96875 0  0.15625 -0.96875 0  0.1875 -0.96875 0  0.21875 -0.96875 0  0.25 -0.96875 0  0.28125 -0.96875 0  0.3125 -0.96875 0  0.34375 -0.96875 0  0.375 -0.96875 0  0.40625 -0.96875 0  0.4375 -0.96875 0  0.46875 -0.96875 0  0.5 -0.96875 0  0.53125 -0.96875 0  0.5625 -0.96875 0  0.59375 -0.96875 0  0.625 -0.96875 0  0.65625 -0.96875 0  0.6875 -0.96875 0  0.71875 -0.96875 0  0.75 -0.96875 0  0.78125 -0.96875 0  0.8125 -0.96875 0  0.84375 -0.96875 0  0.875 -0.96875 0  0.90625 -0.96875 0  0.9375 -0.96875 0  0.96875 -0.96875 0  1 -0.96875 0  -1 -0.9375 0  -0.96875 -0.9375 0  -0.9375 -0.9375 0  -0.90625 -0.9375 0  -0.875 -0.9375 0  -0.84375 -0.9375 0  -0.8125 -0.9375 0  -0.78125 -0.9375 0  -0.75 -0.9375 0  -0.71875 -0.9375 0  -0.6875 -0.9375 0  -0.65625 -0.9375 0  -0.625 -0.9375 0  -0.59375 -0.9375 0  -0.5625 -0.9375 0  -0.53125 -0.9375 0  -0.5 -0.9375 0  -0.46875 -0.9375 0  -0.4375 -0.9375 0  -0.40625 -0.9375 0  -0.375 -0.9375 0  -0.34375 -0.9375 0  -0.3125 -0.9375 0  -0.28125 -0.9375 0  -0.25 -0.9375 0  -0.21875 -0.9375 0  -0.1875 -0.9375 0  -0.15625 -0.9375 0  -0.125 -0.9375 0  -0.09375 -0.9375 0  -0.0625 -0.9375 0  -0.03125 -0.9375 0  0 -0.9375 0  0.03125 -0.9375 0  0.0625 -0.9375 0  0.09375 -0.9375 0  0.125 -0.9375 0  0.15625 -0.9375 0  0.1875 -0.9375 0  0.21875 -0.9375 0  0.25 -0.9375 0  0.28125 -0.9375 0  0.3125 -0.9375 0  0.34375 -0.9375 0  0.375 -0.9375 0  0.40625 -0.9375 0  0.4375 -0.9375 0  0.46875 -0.9375 0  0.5 -0.9375 0  0.53125 -0.9375 0  0.5625 -0.9375 0  0.59375 -0.9375 0  0.625 -0.9375 0  0.65625 -0.9375 0  0.6875 -0.9375 0  0.71875 -0.9375 0  0.75 -0.9375 0  0.78125 -0.9375 0  0.8125 -0.9375 0  0.84375 -0.9375 0  0.875 -0.9375 0  0.90625 -0.9375 0  0.9375 -0.9375 0  0.96875 -0.9375 0  1 -0.9375 0  -1 -0.90625 0  -0.96875 -0.90625 0  -0.9375 -0.90625 0  -0.90625 -0.90625 0  -0.875 -0.90625 0  -0.84375 -0.90625 0  -0.8125 -0.90625 0  -0.78125 -0.90625 0  -0.75 -0.90625 0  -0.71875 -0.90625 0  -0.6875 -0.90625 0  -0.65625 -0.90625 0  -0.625 -0.90625 0  -0.59375 -0.90625 0  -0.5625 -0.90625 0  -0.53125 -0.90625 0  -0.5 -0.90625 0  -0.46875 -0.90625 0  -0.4375 -0.90625 0  -0.40625 -0.90625 0  -0.375 -0.90625 0  -0.34375 -0.90625 0  -0.3125 -0.90625 0  -0.28125 -0.90625 0  -0.25 -0.90625 0  -0.21875 -0.90625 0  -0.1875 -0.90625 0  -0.15625 -0.90625 0  -0.125 -0.90625 0  -0.09375 -0.90625 0  -0.0625 -0.90625 0  -0.03125 -0.90625 0  0 -0.90625 0  0.03125 -0.90625 0  0.0625 -0.90625 0  0.09375 -0.90625 0  0.125 -0.90625 0  0.15625 -0.90625 0  0.1875 -0.90625 0  0.21875 -0.90625 0  0.25 -0.90625 0  0.28125 -0.90625 0  0.3125 -0.90625 0  0.34375 -0.90625 0  0.375 -0.90625 0  0.40625 -0.90625 0  0.4375 -0.90625 0  0.46875 -0.90625 0  0.5 -0.90625 0  0.53125 -0.90625 0  0.5625 -0.90625 0  0.59375 -0.90625 0  0.625 -0.90625 0  0.65625 -0.90625 0  0.6875 -0.90625 0  0.71875 -0.90625 0  0.75 -0.90625 0  0.78125 -0.90625 0  0.8125 -0.90625 0  0.84375 -0.90625 0  0.875 -0.90625 0  0.90625 -0.90625 0  0.9375 -0.90625 0  0.96875 -0.90625 0  1 -0.90625 0  -1 -0.875 0  -0.96875 -0.875 0  -0.9375 -0.875 0  -0.90625 -0.875 0  -0.875 -0.875 0  -0.84375 -0.875 0  -0.8125 -0.875 0  -0.78125 -0.875 0  -0.75 -0.875 0  -0.71875 -0.875 0  -0.6875 -0.875 0  -0.65625 -0.875 0  -0.625 -0.875 0  -0.59375 -0.875 0  -0.5625 -0.875 0  -0.53125 -0.875 0  -0.5 -0.875 0  -0.46875 -0.875 0  -0.4375 -0.875 0  -0.40625 -0.875 0  -0.375 -0.875 0  -0.34375 -0.875 0  -0.3125 -0.875 0  -0.28125 -0.875 0  -0.25 -0.875 0  -0.21875 -0.875 0  -0.1875 -0.875 0  -0.15625 -0.875 0  -0.125 -0.875 0  -0.09375 -0.875 0  -0.0625 -0.875 0  -0.03125 -0.875 0  0 -0.875 0  0.03125 -0.875 0  0.0625 -0.875 0  0.09375 -0.875 0  0.125 -0.875 0  0.15625 -0.875 0  0.1875 -0.875 0  0.21875 -0.875 0  0.25 -0.875 0  0.28125 -0.875 0  0.3125 -0.875 0  0.34375 -0.875 0  0.375 -0.875 0  0.40625 -0.875 0  0.4375 -0.875 0  0.46875 -0.875 0  0.5 -0.875 0  0.53125 -0.875 0  0.5625 -0.875 0  0.59375 -0.875 0  0.625 -0.875 0  0.65625 -0.875 0  0.6875 -0.875 0  0.71875 -0.875 0  0.75 -0.875 0  0.78125 -0.875 0  0.8125 -0.875 0  0.84375 -0.875 0  0.875 -0.875 0  0.90625 -0.875 0  0.9375 -0.875 0  0.96875 -0.875 0  1 -0.875 0  -1 -0.84375 0  -0.96875 -0.84375 0  -0.9375 -0.84375 0  -0.90625 -0.84375 0  -0.875 -0.84375 0  -0.84375 -0.84375 0  -0.8125 -0.84375 0  -0.78125 -0.84375 0  -0.75 -0.84375 0  -0.71875 -0.84375 0  -0.6875 -0.84375 0  -0.65625 -0.84375 0  -0.625 -0.84375 0  -0.59375 -0.84375 0  -0.5625 -0.84375 0  -0.53125 -0.84375 0  -0.5 -0.84375 0  -0.46875 -0.84375 0  -0.4375 -0.84375 0  -0.40625 -0.84375 0  -0.375 -0.84375 0  -0.34375 -0.84375 0  -0.3125 -0.84375 0  -0.28125 -0.84375 0  -0.25 -0.84375 0  -0.21875 -0.84375 0  -0.1875 -0.84375 0  -0.15625 -0.84375 0  -0.125 -0.84375 0  -0.09375 -0.84375 0  -0.0625 -0.84375 0  -0.03125 -0.84375 0  0 -0.84375 0  0.03125 -0.84375 0  0.0625 -0.84375 0  0.09375 -0.84375 0  0.125 -0.84375 0  0.15625 -0.84375 0  0.1875 -0.84375 0  0.21875 -0.84375 0  0.25 -0.84375 0  0.28125 -0.84375 0  0.3125 -0.84375 0  0.34375 -0.84375 0  0.375 -0.84375 0  0.40625 -0.84375 0  0.4375 -0.84375 0  0.46875 -0.84375 0  0.5 -0.84375 0  0.53125 -0.84375 0  0.5625 -0.84375 0  0.59375 -0.84375 0  0.625 -0.84375 0  0.65625 -0.84375 0  0.6875 -0.84375 0  0.71875 -0.84375 0  0.75 -0.84375 0  0.78125 -0.84375 0  0.8125 -0.84375 0  0.84375 -0.84375 0  0.875 -0.84375 0  0.90625 -0.84375 0  0.9375 -0.84375 0  0.96875 -0.84375 0  1 -0.84375 0  -1 -0.8125 0  -0.96875 -0.8125 0  -0.9375 -0.8125 0  -0.90625 -0.8125 0  -0.875 -0.8125 0  -0.84375 -0.8125 0  -0.8125 -0.8125 0  -0.78125 -0.8125 0  -0.75 -0.8125 0  -0.71875 -0.8125 0  -0.6875 -0.8125 0  -0.65625 -0.8125 0  -0.625 -0.8125 0  -0.59375 -0.8125 0  -0.5625 -0.8125 0  -0.53125 -0.8125 0  -0.5 -0.8125 0  -0.46875 -0.8125 0  -0.4375 -0.8125 0  -0.40625 -0.8125 0  -0.375 -0.8125 0  -0.34375 -0.8125 0  -0.3125 -0.8125 0  -0.28125 -0.8125 0  -0.25 -0.8125 0  -0.21875 -0.8125 0  -0.1875 -0.8125 0  -0.15625 -0.8125 0  -0.125 -0.8125 0  -0.09375 -0.8125 0  -0.0625 -0.8125 0  -0.03125 -0.8125 0  0 -0.8125 0  0.03125 -0.8125 0  0.0625 -0.8125 0  0.09375 -0.8125 0  0.125 -0.8125 0  0.15625 -0.8125 0  0.1875 -0.8125 0  0.21875 -0.8125 0  0.25 -0.8125 0  0.28125 -0.8125 0  0.3125 -0.8125 0  0.34375 -0.8125 0  0.375 -0.8125 0  0.40625 -0.8125 0  0.4375 -0.8125 0  0.46875 -0.8125 0  0.5 -0.8125 0  0.53125 -0.8125 0  0.5625 -0.8125 0  0.59375 -0.8125 0  0.625 -0.8125 0  0.65625 -0.8125 0  0.6875 -0.8125 0  0.71875 -0.8125 0  0.75 -0.8125 0  0.78125 -0.8125 0  0.8125 -0.8125 0  0.84375 -0.8125 0  0.875 -0.8125 0  0.90625 -0.8125 0  0.9375 -0.8125 0  0.96875 -0.8125 0  1 -0.8125 0  -1 -0.78125 0  -0.96875 -0.78125 0  -0.9375 -0.78125 0  -0.90625 -0.78125 0  -0.875 -0.78125 0  -0.84375 -0.78125 0  -0.8125 -0.78125 0  -0.78125 -0.78125 0  -0.75 -0.78125 0  -0.71875 -0.78125 0  -0.6875 -0.78125 0  -0.65625 -0.78125 0  -0.625 -0.78125 0  -0.59375 -0.78125 0  -0.5625 -0.78125 0  -0.53125 -0.78125 0  -0.5 -0.78125 0  -0.46875 -0.78125 0  -0.4375 -0.78125 0  -0.40625 -0.78125 0  -0.375 -0.78125 0  -0.34375 -0.78125 0  -0.3125 -0.78125 0  -0.28125 -0.78125 0  -0.25 -0.78125 0  -0.21875 -0.78125 0  -0.1875 -0.78125 0  -0.15625 -0.78125 0  -0.125 -0.78125 0  -0.09375 -0.78125 0  -0.0625 -0.78125 0  -0.03125 -0.78125 0  0 -0.78125 0  0.03125 -0.78125 0  0.0625 -0.78125 0  0.09375 -0.78125 0  0.125 -0.78125 0  0.15625 -0.78125 0  0.1875 -0.78125 0  0.21875 -0.78125 0  0.25 -0.78125 0  0.28125 -0.78125 0  0.3125 -0.78125 0  0.34375 -0.78125 0  0.375 -0.78125 0  0.40625 -0.78125 0  0.4375 -0.78125 0  0.46875 -0.78125 0  0.5 -0.78125 0  0.53125 -0.78125 0  0.5625 -0.78125 0  0.59375 -0.78125 0  0.625 -0.78125 0  0.65625 -0.78125 0  0.6875 -0.78125 0  0.71875 -0.78125 0  0.75 -0.78125 0  0.78125 -0.78125 0  0.8125 -0.78125 0  0.84375 -0.78125 0  0.875 -0.78125 0  0.90625 -0.78125 0  0.9375 -0.78125 0  0.96875 -0.78125 0  1 -0.78125 0  -1 -0.75 0  -0.96875 -0.75 0  -0.9375 -0.75 0  -0.90625 -0.75 0  -0.875 -0.75 0  -0.84375 -0.75 0  -0.8125 -0.75 0  -0.78125 -0.75 0  -0.75 -0.75 0  -0.71875 -0.75 0  -0.6875 -0.75 0  -0.65625 -0.75 0  -0.625 -0.75 0  -0.59375 -0.75 0  -0.5625 -0.75 0  -0.53125 -0.75 0  -0.5 -0.75 0  -0.46875 -0.75 0  -0.4375 -0.75 0  -0.40625 -0.75
[...]
<PointData  Scalars="f_15"> 
<DataArray  type="Float64"  Name="f_15"  format="ascii">-4.2293545314086162e-01  -4.1887216007104444e-01  -4.0683843093554495e-01  -3.8729671519644754e-01  -3.6099799003048505e-01  -3.2895290069729050e-01  -2.9239292200884565e-01  -2.5272303344307478e-01  -2.1146772657043075e-01  -1.7021241969778680e-01  -1.3054253113201592e-01  -9.3982552443571052e-02  -6.1937463110376498e-02  -3.5638737944414016e-02  -1.6097022205316558e-02  -4.0632930698171650e-03  0.0000000000000000e+00  -4.0632930698171650e-03  -1.6097022205316582e-02  -3.5638737944414030e-02  -6.1937463110376539e-02  -9.3982552443571080e-02  -1.3054253113201605e-01  -1.7021241969778689e-01  -2.1146772657043081e-01  -2.5272303344307478e-01  -2.9239292200884559e-01  -3.2895290069729050e-01  -3.6099799003048505e-01  -3.8729671519644754e-01  -4.0683843093554495e-01  -4.1887216007104444e-01  -4.2293545314086162e-01  -4.1887216007104444e-01  -4.0683843093554495e-01  -3.8729671519644754e-01  -3.6099799003048505e-01  -3.2895290069729050e-01  -2.9239292200884559e-01  -2.5272303344307478e-01  -2.1146772657043081e-01  -1.7021241969778689e-01  -1.3054253113201605e-01  -9.3982552443571080e-02  -6.1937463110376539e-02  -3.5638737944414030e-02  -1.6097022205316582e-02  -4.0632930698171650e-03  0.0000000000000000e+00  -4.0632930698171650e-03  -1.6097022205316558e-02  -3.5638737944414016e-02  -6.1937463110376498e-02  -9.3982552443571052e-02  -1.3054253113201592e-01  -1.7021241969778680e-01  -2.1146772657043075e-01  -2.5272303344307478e-01  -2.9239292200884565e-01  -3.2895290069729050e-01  -3.6099799003048505e-01  -3.8729671519644754e-01  -4.0683843093554495e-01  -4.1887216007104444e-01  -4.2293545314086162e-01  -4.1887216007104444e-01  -3.7102474955621600e-01  -3.6741689403696193e-01  -3.5374537010781110e-01  -3.3193245326293175e-01  -3.0192329683145069e-01  -2.6487917194547689e-01  -2.2241514320083458e-01  -1.7634043854357981e-01  -1.2850247824923205e-01  -8.0690488713295233e-02  -3.4573277521789361e-02  8.3427783908620063e-03  4.6743620749807827e-02  7.9529679728261554e-02  1.0583255644183936e-01  1.2502725838398884e-01  1.3674045320859582e-01  1.4085496804098582e-01  1.3751062335075231e-01  1.2710139660571027e-01  1.1026865470520536e-01  8.7889681277648984e-02  6.1059542458043112e-02  3.1062175641600274e-02  -6.7662225678289767e-04  -3.2664514676997471e-02  -6.3455271655042805e-02  -9.1797085403206941e-02  -1.1679259275240783e-01  -1.3802191801951402e-01  -1.5557344943134935e-01  -1.6995500731110455e-01  -1.8191070343679216e-01  -1.9221205424086882e-01  -2.0149565147901163e-01  -2.1018584314252170e-01  -2.1849677713611190e-01  -2.2648097321211391e-01  -2.3408857704825972e-01  -2.4121459388954936e-01  -2.4772762960031772e-01  -2.5348505784445746e-01  -2.5834330958255453e-01  -2.6217035590717191e-01  -2.6486304406246652e-01  -2.6636768122387972e-01  -2.6669920010029896e-01  -2.6595339261716727e-01  -2.6430771975945394e-01  -2.6200955141509774e-01  -2.5935556688157918e-01  -2.5667381740007900e-01  -2.5432505037821651e-01  -2.5274625419278179e-01  -2.5252876003073305e-01  -2.5452110255490640e-01  -2.5978784524018311e-01  -2.6951733711749443e-01  -2.8426189178000522e-01  -3.0428936511029864e-01  -3.2638808777782891e-01  -3.5357504104726351e-01  -3.6293789876085514e-01  -4.1887216007104444e-01  -4.0683843093554495e-01  -3.5230530440014995e-01  -3.6823702659693608e-01  -3.5819369086415798e-01  -3.3951119236254096e-01  -3.1203944685268481e-01  -2.7761357237329187e-01  -2.3809900049966806e-01  -1.9542104356041820e-01  -1.5145923943986067e-01  -1.0798493169541946e-01  -6.6620916666192728e-02  -2.8811449710797979e-02  4.2038872092935477e-03  3.1414250548904024e-02  5.2058786464232731e-02  6.5643473055325516e-02  7.1952033453234601e-02  7.1049878086770824e-02  6.3280717211364287e-02  4.9256110074821592e-02  2.9838669379157648e-02  6.1193436209099885e-03  -2.0612460330708422e-02  -4.8910931048807178e-02  -7.7238396052778296e-02  -1.0406593646469663e-01  -1.2801775311725813e-01  -1.4804577870999089e-01  -1.6358978857237153e-01  -1.7465853379047022e-01  -1.8178397990732839e-01  -1.8585346536091654e-01  -1.8788027457895065e-01  -1.8879262985904879e-01  -1.8929723277123420e-01  -1.8983119366896686e-01  -1.9058416986357588e-01  -1.9156025312028954e-01  -1.9265180004843840e-01  -1.9370637874405705e-01  -1.9457793684948130e-01  -1.9516057881342277e-01  -1.9540729651782066e-01  -1.9533688326696633e-01  -1.9503193655897799e-01  -1.9463020833860722e-01  -1.9431152841262500e-01  -1.9428268425645948e-01  -1.9476305431192847e-01  -1.9597413012993620e-01  -1.9813632882952098e-01  -2.0147803191423594e-01  -2.0625947136822942e-01  -2.1281881740838257e-01  -2.2161772445483979e-01  -2.3329606256284949e-01  -2.4855916721104337e-01  -2.6808256994228574e-01  -2.9161710099475946e-01  -3.1850449012772364e-01  -3.4409709652597487e-01  -3.6981794418634062e-01  -3.7142131450086607e-01  -4.0683843093554495e-01  -3.8729671519644754e-01  -3.2719308150256432e-01  -3.4464807663570646e-01  -3.3535389717266573e-01  -3.1937002369517248e-01  -2.9422299741597979e-01  -2.6180952607052194e-01  -2.2382912262334489e-01  -1.8216422287867137e-01  -1.3870159771189702e-01  -9.5244769534442469e-02  -5.3454609759383438e-02  -1.4810708354302813e-02  1.9415772694935843e-02  4.8182956786220962e-02  7.0695004659001609e-02  8.6415224076481154e-02  9.5075373368071689e-02  9.6680966040205693e-02  9.1512555855079003e-02  8.0122954280041167e-02  6.3329642048685478e-02  4.2199680060675655e-02  1.8020815184451741e-02  -7.7520587764464107e-03  -3.3588111576606773e-02  -5.8016583144494024e-02  -7.9796257957525416e-02  -9.8080583003389371e-02  -1.1252300163765125e-01  -1.2327771512136540e-01  -1.3089133226584201e-01  -1.3612660975691562e-01  -1.3978041829117607e-01  -1.4254544765627028e-01  -1.4493541461383305e-01  -1.4726803955059964e-01  -1.4968787469164524e-01  -1.5220966751482701e-01  -1.5476683420260570e-01  -1.5725515378208865e-01  -1.5956702733365430e-01  -1.6161557365178045e-01  -1.6334999000517561e-01  -1.6476430235181380e-01  -1.6590140093708694e-01  -1.6685374738953918e-01  -1.6776165374731139e-01  -1.6880986490056307e-01  -1.7022324345172091e-01  -1.7226305546253609e-01  -1.7522581402874574e-01  -1.7944892217375796e-01  -1.8532367645786491e-01  -1.9332342059422056e-01  -2.0401382447523475e-01  -2.1806630397464036e-01  -2.3604655443516570e-01  -2.5830389181583208e-01  -2.8389528245803214e-01  -3.1160082547058793e-01  -3.3567117435001115e-01  -3.5811542202576718e-01  -3.5415733239192881e-01  -3.8729671519644754e-01  -3.6099799003048505e-01  -3.0296388079627573e-01  -3.1894533707645800e-01  -3.1113818449909553e-01  -2.9683645426593180e-01  -2.7385107169114675e-01  -2.4396217171977427e-01  -2.0863274118051103e-01  -1.6962403254278144e-01  -1.2874327142861777e-01  -8.7746263597061946e-02  -4.8259849484380085e-02  -1.1731079073027988e-02  2.0606547061560676e-02  4.7756519992613919e-02  6.8976462619420351e-02  8.3790688734407801e-02  9.1998502048395006e-02  9.3677952428632402e-02  8.9184385972036678e-02  7.9142554648001379e-02  6.4429659803746125e-02  4.6144434367475756e-02  2.5554804365972680e-02  4.0161743952429919e-03  -1.7142689489560683e-02  -3.6756569253761841e-02  -5.3956847050314907e-02  -6.8262856036462302e-02  -7.9599834377825501e-02  -8.8236753207672519e-02  -9.4667577454829038e-02  -9.9476615247205663e-02  -1.0322458071901849e-01  -1.0637448637401223e-01  -1.0925856729810329e-01  -1.1207710531080065e-01  -1.1491725518637573e-01  -1.1778158760708440e-01  -1.2061889975424656e-01  -1.2335266330773718e-01  -1.2590471551584678e-01  -1.2821350130088938e-01  -1.3024717070472483e-01  -1.3201233138562116e-01  -1.3355928679568688e-01  -1.3498452845267916e-01  -1.3643113670527354e-01  -1.3808783444689962e-01  -1.4018757811055582e-01  -1.4300718071284729e-01  -1.4686942654557236e-01  -1.5215128821786703e-01  -1.5929587601461750e-01  -1.6883539851381829e-01  -1.8137652228811699e-01  -1.9758291983382753e-01  -2.1785970157687762e-01  -2.4226277908755986e-01  -2.6921488076816613e-01  -2.9721273730300357e-01  -3.1961689529179332e-01  -3.3985849148531039e-01  -3.3275166650084104e-01  -3.6099799003048505e-01  -3.2895290069729050e-01  -2.8213433858616671e-01  -2.9255698677598341e-01  -2.8371705169289563e-01  -2.6908883519039634e-01  -2.4703587824336395e-01  -2.1877909988922312e-01  -1.8549784080798573e-01  -1.4870391539639968e-01  -1.1000978499257358e-01  -7.1035389674920957e-02  -3.3317218700656862e-02  1.7568538815884922e-03  3.2993580587481745e-02  5.9426039629411224e-02  8.0335380865085140e-02  9.5265429086128395e-02  1.0403151806570332e-01  1.0672369297199759e-01  1.0370331794632208e-01  9.5590745542798686e-02  8.3240076528856302e-02  6.7695548032007405e-02  5.0124233429437268e-02  3.1723403207887295e-02  1.3609296918758864e-02  -3.2948193168612738e-03  -1.8345481586620631e-02  -3.1217075725870007e-02  -4.1881673144563265e-02  -5.0540908994188449e-02  -5.7534355924546032e-02  -6.3250610557509857e-02  -6.8058763399430192e-02  -7.2266190219426513e-02  -7.6100063074850732e-02  -7.9706254918867778e-02  -8.3159264255558932e-02  -8.6478051971071265e-02  -8.9644187265322306e-02  -9.2619806353448492e-02  -9.5363875789198957e-02  -9.7845943477200548e-02  -1.0005718185640405e-01  -1.0201882754843843e-01  -1.0378836503016230e-01  -1.0546381879667052e-01  -1.0718661970252399e-01  -1.0914357453167062e-01  -1.1156867174333332e-01  -1.1474600118736686e-01  -1.1901485705922817e-01  -1.2478045504868912e-01  -1.3252526632891398e-01  -1.4282833752505139e-01  -1.5632466584034116e-01  -1.7366028545314499e-01  -1.9506518485425209e-01  -2.2033356992749434e-01  -2.4730005469449470e-01  -2.7446258058872658e-01  -2.9436134984261980e-01  -3.1263772322165001e-01  -3.0200107711286284e-01  -3.2895290069729050e-01  -2.9239292200884565e-01  -2.6635852792647580e-01  -2.6885980999213133e-01  -2.5797363612060498e-01  -2.4203162326930205e-01  -2.1996119321160632e-01  -1.9263614287886402e-01  -1.6102040331065426e-01  -1.2635886573072724e-01  -9.0032253680225757e-02  -5.3469159632320726e-02  -1.8055585357321841e-02  1.4936468293056821e-02  4.4403848670548030e-02  6.9451910729547414e-02  8.9421825569188776e-02  1.0390798763707955e-01  1.1276691500623842e-01  1.1611776618860226e-01  1.1433324520803910e-01  1.0801843242289803e-01  9.7974267821139965e-02  8.5142838263161574e-02  7.0534204575419743e-02  5.5139700219053199e-02  3.9843243396404979e-02  2.5347068387183907e-02  1.2127685651534119e-02  4.3039736689654879e-04  -9.7006994338992899e-03  -1.8369945698824327e-02  -2.5770660743496807e-02  -3.2132052958754563e-02  -3.7679326547382430e-02  -4.2608239434132208e-02  -4.7072090715502793e-02  -5.1178175321580838e-02  -5.4990887455831278e-02  -5.8539227678072452e-02  -6.1826862076971245e-02  -6.4843299006713317e-02  -6.7575024464728697e-02  -7.0015846434111254e-02  -7.2175976064127831e-02  -7.4089711241901016e-02  -7.5821729579958683e-02  -7.7472203118579150e-02  -7.9181000462231740e-02  -8.1131489495987696e-02  -8.3554550308619371e-02  -8.6734116463013891e-02  -9.1014964200837212e-02  -9.6816263576162728e-02  -1.0464278220758404e-01  -1.1510179615077348e-01  -1.2883584547350085e-01  -1.4645866450598799e-01  -1.6801841952397048e-01  -1.9311317599577940e-01  -2.1907910375447390e-01  -2.4472960372229988e-01  -2.6176272520517480e-01  -2.7861979896379402e-01  -2.6438123538276231e-01  -2.9239292200884565e-01  -2.5272303344307478e-01  -2.5593153388102441e-01  -2.4922780465036753e-01  -2.3567302226489162e-01  -2.1765462190549620e-01  -1.9477909639632629e-01  -1.6767914095512443e-01  -1.3712702158211837e-01  -1.0413315776572653e-01  -6.9849174077910456e-02  -3.5491474133403970e-02  -2.2635473835431641e-03  2.8712257658944047e-02  5.6451498791669538e-02  8.0151438919721887e-02  9.9222451653000712e-02  1.1330800573929803e-01  1.2229389147977382e-01  1.2630657203242066e-01  1.2569964804106781e-01  1.2102688281853985e-01  1.1300049473896116e-01  1.0243505370746925e-01  9.0180387017261845e-02  7.7050819386938210e-02  6.3761121259988632e-02  5.0879818418176931e-02  3.8806986292544358e-02  2.7777436038414111e-02  1.7883985734721559e-02  9.1119841578310087e-03  1.3762763962094763e-03  -5.4456695219373555e-03  -1.1487594643799729e-02  -1.6875921089992345e-02  -2.1718231844303573e-02  -2.6097666676372481e-02  -3.0072079563129170e-02  -3.3676848132311352e-02  -3.6930275548569973e-02  -3.9840591041610945e-02  -4.2413685298355382e-02  -4.4660900882631575e-02  -4.6606416962254260e-02  -4.8293978591245193e-02  -4.9792905519025529e-02  -5.1203465409109354e-02  -5.2661853340730903e-02  -5.4345218683273938e-02  -5.6477363071854698e-02  -5.9336404014946866e-02  -6.3264903545442439e-02  -6.8686002901514220e-02  -7.6114288224935156e-02  -8.6170894032719533e-02  -9.9490046857094269e-02  -1.1664733566095462e-01  -1.3751909051377922e-01  -1.6159476428939293e-01  -1.8580516482326201e-01  -2.0955080520608185e-01  -2.2354579398393115e-01  -2.3953965074800843e-01  -2.2131932024529080e-01  -2.5272303344307478e-01  -2.1146772657043075e-01  -2.5015221240846508e-01  -2.3379889685744473e-01  -2.1755263783949996e-01  -1.9729168031473782e-01  -1.7332274967615935e-01  -1.4608738759302883e-01  -1.1622673466529569e-01  -8.4573261429651284e-02  -5.2083046061277304e-02  -1.9775449199679111e-02  1.1330520880800431e-02  4.0276123589639085e-02  6.6215361016788599e-02  8.8457536318116287e-02  1.0649874482158722e-01  1.2004183129829089e-01  1.2900459380783877e-01  1.3351586920332983e-01  1.3389905844890329e-01  1.3064288141014188e-01  1.2436016624365359e-01  1.1573719703481328e-01  1.0547839059496804e-01  9.4252876090718321e-02  8.2650059798765246e-02  7.1149744447740665e-02  6.0109226523262602e-02  4.9766128173569762e-02  4.0252941472236181e-02  3.1618181074002556e-02  2.3849505667863664e-02  1.6895520949563921e-02  1.0684363943030104e-02  5.1382677939471391e-03  1.8392053365053429e-04  -4.2411668667437759e-03  -8.1858919541974579e-03  -1.1685811360513203e-02  -1.4765767724316261e-02  -1.7444182730153496e-02  -1.9738384276157935e-02  -2.1670404880974773e-02  -2.3272872004471833e-02  -2.4594727670505471e-02  -2.5706707311412894e-02  -2.6706624362270549e-02  -2.7724691020697696e-02  -2.8929310434610396e-02  -3.0533966420846371e-02  -3.2806535573444061e-02  -3.6081291524085971e-02  -4.0777247867261147e-02  -4.7408429292587234e-02  -5.6598130144711767e-02  -6.8961565573670572e-02  -8.5039815553117987e-02  -1.0456281438037242e-01  -1.2700793249750841e-01  -1.4898055059391352e-01  -1.7067888056636799e-01  -1.8162072314748029e-01  -1.9730133552252041e-01  -1.7469322097177442e-01  -2.1146772657043075e-01  -1.7021241969778680e-01  -2.4790316284656028e-01  -2.2202396256651469e-01  -2.0341600841170618e-01  -1.8104949402541443e-01  -1.5598224884193088e-01  -1.2848997348928137e-01  -9.9119587138882873e-02  -6.8564383391289840e-02  -3.7620655053131301e-02  -7.1376556226608696e-03  2.2034495403807548e-02  4.9094755926515202e-02  7.3336128423488148e-02  9.4183140221234127e-02  1.1122002147953812e-01  1.2420838440006964e-01  1.3309364661791664e-01  1.3799983320771542e-01  1.3921282421268913e-01  1.3715287274767618e-01  1.3233826891875317e-01  1.2534334476363240e-01  1.1675512861009626e-01  1.0713348495719754e-01  9.6979057462768414e-02  8.6711855288999842e-02  7.6661266817920112e-02  6.7066341422217263e-02  5.8083887729632404e-02  4.9801473314803640e-02  4.2252649394205151e-02  3.5432288545795526e-02  2.9310589400768371e-02  2.3844838020982147e-02  1.8988470772564988e-02  1.4697282458942361e-02  1.0932901238280066e-02  7.6638150072893159e-03  4.8643824578580375e-03  2.5122941908380979e-03  5.8496758775614414e-04  -9.4472905685025243e-04  -2.1130934767715007e-03  -2.9703685086948264e-03  -3.5855976280838777e-03  -4.0516408933857868e-03  -4.4905633894619275e-03  -5.0598703257787106e-03  -5.9602036115752668e-03  -7.4458798259841369e-03  -9.8383219031072285e-03  -1.3546189543708311e-02  -1.9075039976812848e-02  -2.7042030052091978e-02  -3.8038823703364262e-02  -5.2583916604205826e-02  -7.0296673324373726e-02  -9.0732535724364433e-02  -1.1022814378400235e-01  -1.2992176869605473e-01  -1.3789163731939577e-01  -1.5376827872704577e-01  -1.2634458863771253e-01  -1.7021241969778680e-01  -1.3054253113201592e-01  -2.4810020233157565e-01  -2.1317292272042176e-01  -1.9268025816541814e-01  -1.6848743902441821e-01  -1.4247675722833525e-01  -1.1476133635672194e-01  -8.5816927118113270e-02  -5.6225360658112344e-02  -2.6652567256225338e-02  2.1956408869159487e-03  2.9616294612409756e-02  5.4950265563212940e-02  7.7619287434398693e-02  9.7156904704297012e-02  1.1323163092959228e-01  1.2566104056651076e-01  1.3441602180151649e-01  1.3961496632953113e-01  1.4150834705348672e-01  1.4045492248849506e-01  1.3689168158045997e-01  1.3130041678797513e-01  1.2417428411597735e-01  1.1598764883044665e-01  1.0717188904841264e-01  9.8098745440233601e-02  8.9071569503064760e-02  8.0323739292411933e-02  7.2022790886243596e-02  6.4278512551959294e-02  5.7153275530445642e-02  5.0673116811103945e-02  4.4838404201623050e-02  3.9633254427789893e-02  3.5033176289566544e-02  3.1010688209215913e-02  2.7538874521162843e-02  2.4593024502155659e-02  2.2150607876530195e-02  2.0189911109859574e-02  1.8687656516385653e-02  1.7615906796029174e-02  1.6938475902381237e-02  1.6606996426234751e-02  1.6556669951097822e-02  1.6701613909489831e-02  1.6929554761682477e-02  1.7095390409446364e-02  1.7012973195765467e-02  1.6443727639957752e-02  1.5082160338626817e-02  1.2534335818336007e-02  8.3085333180923527e-03  1.7986912675701299e-03  -7.5642610182149765e-03  -2.0292748340840126e-02  -3.5935102022153907e-02  -5.4196044273273791e-02  -7.1177018168867054e-02  -8.9033935464195579e-02  -9.4174067408627743e-02  -1.1070511979581478e-01  -7.8057230482278486e-02  -1.3054253113201592e-01  -9.3982552443571052e-02  -2.4989774641883264e-01  -2.0660292185995280e-01  -1.8469593368403209e-01  -1.5896829450469521e-01  -1.3219687576322708e-01  -1.0433289271294988e-01  -7.5798165486172950e-02  -4.7080516036344180e-02  -1.8735900904365502e-02  8.6519608993880070e-03  3.4506721562259007e-02  5.8292894915379818e-02  7.9545650923099773e-02  9.7895390908506824e-02  1.1308576064752675e-01  1.2498409575306384e-01  1.3358373808676868e-01  1.3899820355786116e-01  1.4144780644324115e-01  1.4123999357530767e-01  1.3874525497492010e-01  1.3437090953427833e-01  1.2853522673924023e-01  1.2164415623559137e-01  1.1407242649696964e-01  1.0615005276417282e-01  9.8154517123569734e-02  9.0308215187596463e-02  8.2780281851229223e-02  7.5691664314641027e-02  6.9122250130973811e-02  6.3118955498194129e-02  5.7703845943266559e-02  5.2881587507973692e-02  4.8645740057168312e-02  4.4983622571010844e-02  4.1879650094594614e-02  3.9317193498565543e-02  3.7279105173624483e-02  3.5747116317793093e-02  3.4700324782280911e-02  3.4112976851424254e-02  3.3951699907055315e-02  3.4172272989042130e-02  3.4715931633144549e-02  3.5505085888989395e-02  3.6438183195670590e-02  3.7383214257807544e-02  3.8169198403617800e-02  3.8574247128378258e-02  3.8310318832933656e-02  3.7000617787432466e-02  3.4170051972947341e-02  2.9225635389532004e-02  2.1615962400086865e-02  1.0818018419320282e-02  -2.6827079012596332e-03  -1.8784817455204644e-02  -3.3372472031157396e-02  -4.9639115773274088e-02  -5.2136956863171470e-02  -6.9730838719851862e-02  -3.1491481895927015e-02  -9.3982552443571052e-02  -6.1937463110376498e-02  -2.5269341118017696e-01  -2.0182716201463585e-01  -1.7888613922777385e-01  -1.5187115080585875e-01  -1.2449417254877106e-01  -9.6546890096708832e-02  -6.8410595120983506e-02  -4.0491316201537390e-02  -1.3250166505234263e-02  1.2834428367240833e-02  3.7295224228319677e-02  5.9703318715287189e-02  7.9691783449210143e-02  9.6974743749962844e-02  1.1136092718364511e-01  1.2276100081052913e-01  1.3118838682504722e-01  1.3675370180374327e-01  1.3965344039176805e-01  1.4015401545329739e-01  1.3857264662179011e-01  1.3525684714694111e-01  1.3056428645669327e-01  1.2484462943779454e-01  1.1842457986931609e-01  1.1159686723184467e-01  1.04