<?xml version="1.0"?>
<VTKFile type="UnstructuredGrid"  version="0.1"  >
<UnstructuredGrid>
<Piece  NumberOfPoints="4225" NumberOfCells="8192">
<Points>
<DataArray  type="Float64"  NumberOfComponents="3"  format="ascii">-1 -1 0  -0.96875 -1 0  -0.9375 -1 0  -0.90625 -1 0  -0.875 -1 0  -0.84375 -1 0  -0.8125 -1 0  -0.78125 -1 0  -0.75 -1 0  -0.71875 -1 0  -0.6875 -1 0  -0.65625 -1 0  -0.625 -1 0  -0.59375 -1 0  -0.5625 -1 0  -0.53125 -1 0  -0.5 -1 0  -0.46875 -1 0  -0.4375 -1 0  -0.40625 -1 0  -0.375 -1 0  -0.34375 -1 0  -0.3125 -1 0  -0.28125 -1 0  -0.25 -1 0  -0.21875 -1 0  -0.1875 -1 0  -0.15625 -1 0  -0.125 -1 0  -0.09375 -1 0  -0.0625 -1 0  -0.03125 -1 0  0 -1 0  0.03125 -1 0  0.0625 -1 0  0.09375 -1 0  0.125 -1 0  0.15625 -1 0  0.1875 -1 0  0.21875 -1 0  0.25 -1 0  0.28125 -1 0  0.3125 -1 0  0.34375 -1 0  0.375 -1 0  0.40625 -1 0  0.4375 -1 0  0.46875 -1 0  0.5 -1 0  0.53125 -1 0  0.5625 -1 0  0.59375 -1 0  0.625 -1 0  0.65625 -1 0  0.6875 -1 0  0.71875 -1 0  0.75 -1 0  0.78125 -1 0  0.8125 -1 0  0.84375 -1 0  0.875 -1 0  0.90625 -1 0  0.9375 -1 0  0.96875 -1 0  1 -1 0  -1 -0.96875 0  -0.96875 -0.96875 0  -0.9375 -0.96875 0  -0.90625 -0.96875 0  -0.875 -0.96875 0  -0.84375 -0.96875 0  -0.8125 -0.96875 0  -0.78125 -0.96875 0  -0.75 -0.96875 0  -0.71875 -0.96875 0  -0.6875 -0.96875 0  -0.65625 -0.96875 0  -0.625 -0.96875 0  -0.59375 -0.96875 0  -0.5625 -0.96875 0  -0.53125 -0.96875 0  -0.5 -0.96875 0  -0.46875 -0.96875 0  -0.4375 -0.96875 0  -0.40625 -0.96875 0  -0.375 -0.96875 0  -0.34375 -0.96875 0  -0.3125 -0.96875 0  -0.28125 -0.96875 0  -0.25 -0.96875 0  -0.21875 -0.96875 0  -0.1875 -0.96875 0  -0.15625 -0.96875 0  -0.125 -0.96875 0  -0.09375 -0.96875 0  -0.0625 -0.96875 0  -0.03125 -0.96875 0  0 -0.96875 0  0.03125 -0.96875 0  0.0625 -0.96875 0  0.09375 -0.96875 0  0.125 -0.96875 0  0.15625 -0.96875 0  0.1875 -0.96875 0  0.21875 -0.96875 0  0.25 -0.96875 0  0.28125 -0.96875 0  0.3125 -0.96875 0  0.34375 -0.96875 0  0.375 -0.96875 0  0.40625 -0.96875 0  0.4375 -0.96875 0  0.46875 -0.96875 0  0.5 -0.96875 0  0.53125 -0.96875 0  0.5625 -0.96875 0  0.59375 -0.96875 0  0.625 -0.96875 0  0.65625 -0.96875 0  0.6875 -0.96875 0  0.71875 -0.96875 0  0.75 -0.96875 0  0.78125 -0.96875 0  0.8125 -0.96875 0  0.84375 -0.96875 0  0.875 -0.96875 0  0.90625 -0.96875 0  0.9375 -0.96875 0  0.96875 -0.96875 0  1 -0.96875 0  -1 -0.9375 0  -0.96875 -0.9375 0  -0.9375 -0.9375 0  -0.90625 -0.9375 0  -0.875 -0.9375 0  -0.84375 -0.9375 0  -0.8125 -0.9375 0  -0.78125 -0.9375 0  -0.75 -0.9375 0  -0.71875 -0.9375 0  -0.6875 -0.9375 0  -0.65625 -0.9375 0  -0.625 -0.9375 0  -0.59375 -0.9375 0  -0.5625 -0.9375 0  -0.53125 -0.9375 0  -0.5 -0.9375 0  -0.46875 -0.9375 0  -0.4375 -0.9375 0  -0.40625 -0.9375 0  -0.375 -0.9375 0  -0.34375 -0.9375 0  -0.3125 -0.9375 0  -0.28125 -0.9375 0  -0.25 -0.9375 0  -0.21875 -0.9375 0  -0.1875 -0.9375 0  -0.15625 -0.9375 0  -0.125 -0.9375 0  -0.09375 -0.9375 0  -0.0625 -0.9375 0  -0.03125 -0.9375 0  0 -0.9375 0  0.03125 -0.9375 0  0.0625 -0.9375 0  0.09375 -0.9375 0  0.125 -0.9375 0  0.15625 -0.9375 0  0.1875 -0.9375 0  0.21875 -0.9375 0  0.25 -0.9375 0  0.28125 -0.9375 0  0.3125 -0.9375 0  0.34375 -0.9375 0  0.375 -0.9375 0  0.40625 -0.9375 0  0.4375 -0.9375 0  0.46875 -0.9375 0  0.5 -0.9375 0  0.53125 -0.9375 0  0.5625 -0.9375 0  0.59375 -0.9375 0  0.625 -0.9375 0  0.65625 -0.9375 0  0.6875 -0.9375 0  0.71875 -0.9375 0  0.75 -0.9375 0  0.78125 -0.9375 0  0.8125 -0.9375 0  0.84375 -0.9375 0  0.875 -0.9375 0  0.90625 -0.9375 0  0.9375 -0.9375 0  0.96875 -0.9375 0  1 -0.9375 0  -1 -0.90625 0  -0.96875 -0.90625 0  -0.9375 -0.90625 0  -0.90625 -0.90625 0  -0.875 -0.90625 0  -0.84375 -0.90625 0  -0.8125 -0.90625 0  -0.78125 -0.90625 0  -0.75 -0.90625 0  -0.71875 -0.90625 0  -0.6875 -0.90625 0  -0.65625 -0.90625 0  -0.625 -0.90625 0  -0.59375 -0.90625 0  -0.5625 -0.90625 0  -0.53125 -0.90625 0  -0.5 -0.90625 0  -0.46875 -0.90625 0  -0.4375 -0.90625 0  -0.40625 -0.90625 0  -0.375 -0.90625 0  -0.34375 -0.90625 0  -0.3125 -0.90625 0  -0.28125 -0.90625 0  -0.25 -0.90625 0  -0.21875 -0.90625 0  -0.1875 -0.90625 0  -0.15625 -0.90625 0  -0.125 -0.90625 0  -0.09375 -0.90625 0  -0.0625 -0.90625 0  -0.03125 -0.90625 0  0 -0.90625 0  0.03125 -0.90625 0  0.0625 -0.90625 0  0.09375 -0.90625 0  0.125 -0.90625 0  0.15625 -0.90625 0  0.1875 -0.90625 0  0.21875 -0.90625 0  0.25 -0.90625 0  0.28125 -0.90625 0  0.3125 -0.90625 0  0.34375 -0.90625 0  0.375 -0.90625 0  0.40625 -0.90625 0  0.4375 -0.90625 0  0.46875 -0.90625 0  0.5 -0.90625 0  0.53125 -0.90625 0  0.5625 -0.90625 0  0.59375 -0.90625 0  0.625 -0.90625 0  0.65625 -0.90625 0  0.6875 -0.90625 0  0.71875 -0.90625 0  0.75 -0.90625 0  0.78125 -0.90625 0  0.8125 -0.90625 0  0.84375 -0.90625 0  0.875 -0.90625 0  0.90625 -0.90625 0  0.9375 -0.90625 0  0.96875 -0.90625 0  1 -0.90625 0  -1 -0.875 0  -0.96875 -0.875 0  -0.9375 -0.875 0  -0.90625 -0.875 0  -0.875 -0.875 0  -0.84375 -0.875 0  -0.8125 -0.875 0  -0.78125 -0.875 0  -0.75 -0.875 0  -0.71875 -0.875 0  -0.6875 -0.875 0  -0.65625 -0.875 0  -0.625 -0.875 0  -0.59375 -0.875 0  -0.5625 -0.875 0  -0.53125 -0.875 0  -0.5 -0.875 0  -0.46875 -0.875 0  -0.4375 -0.875 0  -0.40625 -0.875 0  -0.375 -0.875 0  -0.34375 -0.875 0  -0.3125 -0.875 0  -0.28125 -0.875 0  -0.25 -0.875 0  -0.21875 -0.875 0  -0.1875 -0.875 0  -0.15625 -0.875 0  -0.125 -0.875 0  -0.09375 -0.875 0  -0.0625 -0.875 0  -0.03125 -0.875 0  0 -0.875 0  0.03125 -0.875 0  0.0625 -0.875 0  0.09375 -0.875 0  0.125 -0.875 0  0.15625 -0.875 0  0.1875 -0.875 0  0.21875 -0.875 0  0.25 -0.875 0  0.28125 -0.875 0  0.3125 -0.875 0  0.34375 -0.875 0  0.375 -0.875 0  0.40625 -0.875 0  0.4375 -0.875 0  0.46875 -0.875 0  0.5 -0.875 0  0.53125 -0.875 0  0.5625 -0.875 0  0.59375 -0.875 0  0.625 -0.875 0  0.65625 -0.875 0  0.6875 -0.875 0  0.71875 -0.875 0  0.75 -0.875 0  0.78125 -0.875 0  0.8125 -0.875 0  0.84375 -0.875 0  0.875 -0.875 0  0.90625 -0.875 0  0.9375 -0.875 0  0.96875 -0.875 0  1 -0.875 0  -1 -0.84375 0  -0.96875 -0.84375 0  -0.9375 -0.84375 0  -0.90625 -0.84375 0  -0.875 -0.84375 0  -0.84375 -0.84375 0  -0.8125 -0.84375 0  -0.78125 -0.84375 0  -0.75 -0.84375 0  -0.71875 -0.84375 0  -0.6875 -0.84375 0  -0.65625 -0.84375 0  -0.625 -0.84375 0  -0.59375 -0.84375 0  -0.5625 -0.84375 0  -0.53125 -0.84375 0  -0.5 -0.84375 0  -0.46875 -0.84375 0  -0.4375 -0.84375 0  -0.40625 -0.84375 0  -0.375 -0.84375 0  -0.34375 -0.84375 0  -0.3125 -0.84375 0  -0.28125 -0.84375 0  -0.25 -0.84375 0  -0.21875 -0.84375 0  -0.1875 -0.84375 0  -0.15625 -0.84375 0  -0.125 -0.84375 0  -0.09375 -0.84375 0  -0.0625 -0.84375 0  -0.03125 -0.84375 0  0 -0.84375 0  0.03125 -0.84375 0  0.0625 -0.84375 0  0.09375 -0.84375 0  0.125 -0.84375 0  0.15625 -0.84375 0  0.1875 -0.84375 0  0.21875 -0.84375 0  0.25 -0.84375 0  0.28125 -0.84375 0  0.3125 -0.84375 0  0.34375 -0.84375 0  0.375 -0.84375 0  0.40625 -0.84375 0  0.4375 -0.84375 0  0.46875 -0.84375 0  0.5 -0.84375 0  0.53125 -0.84375 0  0.5625 -0.84375 0  0.59375 -0.84375 0  0.625 -0.84375 0  0.65625 -0.84375 0  0.6875 -0.84375 0  0.71875 -0.84375 0  0.75 -0.84375 0  0.78125 -0.84375 0  0.8125 -0.84375 0  0.84375 -0.84375 0  0.875 -0.84375 0  0.90625 -0.84375 0  0.9375 -0.84375 0  0.96875 -0.84375 0  1 -0.84375 0  -1 -0.8125 0  -0.96875 -0.8125 0  -0.9375 -0.8125 0  -0.90625 -0.8125 0  -0.875 -0.8125 0  -0.84375 -0.8125 0  -0.8125 -0.8125 0  -0.78125 -0.8125 0  -0.75 -0.8125 0  -0.71875 -0.8125 0  -0.6875 -0.8125 0  -0.65625 -0.8125 0  -0.625 -0.8125 0  -0.59375 -0.8125 0  -0.5625 -0.8125 0  -0.53125 -0.8125 0  -0.5 -0.8125 0  -0.46875 -0.8125 0  -0.4375 -0.8125 0  -0.40625 -0.8125 0  -0.375 -0.8125 0  -0.34375 -0.8125 0  -0.3125 -0.8125 0  -0.28125 -0.8125 0  -0.25 -0.8125 0  -0.21875 -0.8125 0  -0.1875 -0.8125 0  -0.15625 -0.8125 0  -0.125 -0.8125 0  -0.09375 -0.8125 0  -0.0625 -0.8125 0  -0.03125 -0.8125 0  0 -0.8125 0  0.03125 -0.8125 0  0.0625 -0.8125 0  0.09375 -0.8125 0  0.125 -0.8125 0  0.15625 -0.8125 0  0.1875 -0.8125 0  0.21875 -0.8125 0  0.25 -0.8125 0  0.28125 -0.8125 0  0.3125 -0.8125 0  0.34375 -0.8125 0  0.375 -0.8125 0  0.40625 -0.8125 0  0.4375 -0.8125 0  0.46875 -0.8125 0  0.5 -0.8125 0  0.53125 -0.8125 0  0.5625 -0.8125 0  0.59375 -0.8125 0  0.625 -0.8125 0  0.65625 -0.8125 0  0.6875 -0.8125 0  0.71875 -0.8125 0  0.75 -0.8125 0  0.78125 -0.8125 0  0.8125 -0.8125 0  0.84375 -0.8125 0  0.875 -0.8125 0  0.90625 -0.8125 0  0.9375 -0.8125 0  0.96875 -0.8125 0  1 -0.8125 0  -1 -0.78125 0  -0.96875 -0.78125 0  -0.9375 -0.78125 0  -0.90625 -0.78125 0  -0.875 -0.78125 0  -0.84375 -0.78125 0  -0.8125 -0.78125 0  -0.78125 -0.78125 0  -0.75 -0.78125 0  -0.71875 -0.78125 0  -0.6875 -0.78125 0  -0.65625 -0.78125 0  -0.625 -0.78125 0  -0.59375 -0.78125 0  -0.5625 -0.78125 0  -0.53125 -0.78125 0  -0.5 -0.78125 0  -0.46875 -0.78125 0  -0.4375 -0.78125 0  -0.40625 -0.78125 0  -0.375 -0.78125 0  -0.34375 -0.78125 0  -0.3125 -0.78125 0  -0.28125 -0.78125 0  -0.25 -0.78125 0  -0.21875 -0.78125 0  -0.1875 -0.78125 0  -0.15625 -0.78125 0  -0.125 -0.78125 0  -0.09375 -0.78125 0  -0.0625 -0.78125 0  -0.03125 -0.78125 0  0 -0.78125 0  0.03125 -0.78125 0  0.0625 -0.78125 0  0.09375 -0.78125 0  0.125 -0.78125 0  0.15625 -0.78125 0  0.1875 -0.78125 0  0.21875 -0.78125 0  0.25 -0.78125 0  0.28125 -0.78125 0  0.3125 -0.78125 0  0.34375 -0.78125 0  0.375 -0.78125 0  0.40625 -0.78125 0  0.4375 -0.78125 0  0.46875 -0.78125 0  0.5 -0.78125 0  0.53125 -0.78125 0  0.5625 -0.78125 0  0.59375 -0.78125 0  0.625 -0.78125 0  0.65625 -0.78125 0  0.6875 -0.78125 0  0.71875 -0.78125 0  0.75 -0.78125 0  0.78125 -0.78125 0  0.8125 -0.78125 0  0.84375 -0.78125 0  0.875 -0.78125 0  0.90625 -0.78125 0  0.9375 -0.78125 0  0.96875 -0.78125 0  1 -0.78125 0  -1 -0.75 0  -0.96875 -0.75 0  -0.9375 -0.75 0  -0.90625 -0.75 0  -0.875 -0.75 0  -0.84375 -0.75 0  -0.8125 -0.75 0  -0.78125 -0.75 0  -0.75 -0.75 0  -0.71875 -0.75 0  -0.6875 -0.75 0  -0.65625 -0.75 0  -0.625 -0.75 0  -0.59375 -0.75 0  -0.5625 -0.75 0  -0.53125 -0.75 0  -0.5 -0.75 0  -0.46875 -0.75 0  -0.4375 -0.75 0  -0.40625 -0.75
[...]
<PointData  Scalars="f_15"> 
<DataArray  type="Float64"  Name="f_15"  format="ascii">-4.1894713998879335e-01  -4.1492216407841670e-01  -4.0300191391429008e-01  -3.8364447802526769e-01  -3.5759375181678943e-01  -3.2585085008763143e-01  -2.8963563474962128e-01  -2.5033983621847156e-01  -2.0947356999439662e-01  -1.6860730377032171e-01  -1.2931150523917195e-01  -9.3096289901161769e-02  -6.1353388172003830e-02  -3.5302661963525550e-02  -1.5945226074503147e-02  -4.0249759103766153e-03  0.0000000000000000e+00  -4.0249759103766153e-03  -1.5945226074503174e-02  -3.5302661963525571e-02  -6.1353388172003885e-02  -9.3096289901161797e-02  -1.2931150523917206e-01  -1.6860730377032182e-01  -2.0947356999439667e-01  -2.5033983621847156e-01  -2.8963563474962128e-01  -3.2585085008763159e-01  -3.5759375181678943e-01  -3.8364447802526769e-01  -4.0300191391429008e-01  -4.1492216407841670e-01  -4.1894713998879335e-01  -4.1492216407841670e-01  -4.0300191391429008e-01  -3.8364447802526769e-01  -3.5759375181678943e-01  -3.2585085008763159e-01  -2.8963563474962128e-01  -2.5033983621847156e-01  -2.0947356999439667e-01  -1.6860730377032182e-01  -1.2931150523917206e-01  -9.3096289901161797e-02  -6.1353388172003885e-02  -3.5302661963525571e-02  -1.5945226074503174e-02  -4.0249759103766153e-03  0.0000000000000000e+00  -4.0249759103766153e-03  -1.5945226074503147e-02  -3.5302661963525550e-02  -6.1353388172003830e-02  -9.3096289901161769e-02  -1.2931150523917195e-01  -1.6860730377032171e-01  -2.0947356999439662e-01  -2.5033983621847156e-01  -2.8963563474962128e-01  -3.2585085008763143e-01  -3.5759375181678943e-01  -3.8364447802526769e-01  -4.0300191391429008e-01  -4.1492216407841670e-01  -4.1894713998879335e-01  -4.1492216407841670e-01  -3.7626126532461901e-01  -3.7325366444057023e-01  -3.6095483335511330e-01  -3.4072199088968597e-01  -3.1247436839036535e-01  -2.7729605114220462e-01  -2.3673104373626899e-01  -1.9252140923109118e-01  -1.4645132533061769e-01  -1.0025184395729278e-01  -5.5540167420282109e-02  -1.3778930647567461e-02  2.3752738566288588e-02  5.5980737732217643e-02  8.2052248980627837e-02  1.0134773906918161e-01  1.1348916550183616e-01  1.1834463427783043e-01  1.1602963858752734e-01  1.0690493095970097e-01  9.1570876507243548e-02  7.0857710909920740e-02  4.5810096613102404e-02  1.7662339159594091e-02  -1.2202693181786269e-02  -4.2321552805136345e-02  -7.1256180301534841e-02  -9.7740206486197995e-02  -1.2084578539599085e-01  -1.4012262801513120e-01  -1.5564762729334419e-01  -1.6794739250625490e-01  -1.7781224643717730e-01  -1.8607262031783905e-01  -1.9341937897683867e-01  -2.0031523034519508e-01  -2.0699455893459776e-01  -2.1351648383173294e-01  -2.1983100571663527e-01  -2.2583217193844229e-01  -2.3139031054004414e-01  -2.3636827505858973e-01  -2.4063111880363031e-01  -2.4405704947064499e-01  -2.4655289088912399e-01  -2.4807277672262770e-01  -2.4863562269980474e-01  -2.4833610394267808e-01  -2.4734512398074632e-01  -2.4589956445697436e-01  -2.4428663035003864e-01  -2.4283587947457519e-01  -2.4193529687716572e-01  -2.4208679235966141e-01  -2.4397960572270019e-01  -2.4854594659309218e-01  -2.5684510337323424e-01  -2.6984850787714021e-01  -2.8773272791375787e-01  -3.1008265506918276e-01  -3.3359931368133805e-01  -3.5979302554515508e-01  -3.6987791766557998e-01  -4.1492216407841670e-01  -4.0300191391429008e-01  -3.5892423849082966e-01  -3.7262066017626011e-01  -3.6302496351115776e-01  -3.4477638250908416e-01  -3.1790501709790664e-01  -2.8420115592573364e-01  -2.4549499947611891e-01  -2.0366598411950534e-01  -1.6054513440407198e-01  -1.1785882698152464e-01  -7.7191963028553925e-02  -3.9959087220477203e-02  -7.3779972608573148e-03  1.9555081119825669e-02  4.0087508662647549e-02  5.3727647790017895e-02  6.0256116430433208e-02  5.9729864365397962e-02  5.2478753881285874e-02  3.9095002835116396e-02  2.0416424073171815e-02  -2.4956220194001719e-03  -2.8383917145391322e-02  -5.5832582749868513e-02  -8.3323444586935899e-02  -1.0932648297431878e-01  -1.3243671922419281e-01  -1.5155095094826040e-01  -1.6604382557642530e-01  -1.7587451642147461e-01  -1.8156342119861191e-01  -1.8403125659645148e-01  -1.8435862375570602e-01  -1.8355452822341603e-01  -1.8240121016357494e-01  -1.8139527981498602e-01  -1.8076695264491457e-01  -1.8054400677317775e-01  -1.8062972763384066e-01  -1.8087405300385934e-01  -1.8112802438110587e-01  -1.8127970815485425e-01  -1.8127419861867328e-01  -1.8112137144065915e-01  -1.8089463391244234e-01  -1.8072308047877417e-01  -1.8077926940506014e-01  -1.8126497291111357e-01  -1.8239779466206965e-01  -1.8440212964945732e-01  -1.8750842045324678e-01  -1.9196581527264947e-01  -1.9807008390542460e-01  -2.0620934188150300e-01  -2.1689963051962380e-01  -2.3079947315001112e-01  -2.4854547594892354e-01  -2.7054346432191850e-01  -2.9617880170455119e-01  -3.2413720619858749e-01  -3.5003015088813821e-01  -3.7386779584250152e-01  -3.7714710075197638e-01  -4.0300191391429008e-01  -3.8364447802526769e-01  -3.3436359073825400e-01  -3.5025596629647787e-01  -3.4174328959960382e-01  -3.2625051922613413e-01  -3.0175007480565813e-01  -2.7008966708926863e-01  -2.3296215792819430e-01  -1.9221954493142190e-01  -1.4970340103161545e-01  -1.0716518610694861e-01  -6.6214412345440773e-02  -2.8285113438993616e-02  5.3885824317145593e-03  3.3792188267818317e-02  5.6147307966814670e-02  7.1924749099209873e-02  8.0853885681241550e-02  8.2928010624927134e-02  7.8405734173204136e-02  6.7808635732072048e-02  5.1914971720129072e-02  3.1747644698619480e-02  8.5512106684274350e-03  -1.6252407368240591e-02  -4.1143955563416997e-02  -6.4634235024679576e-02  -8.5434001198783374e-02  -1.0263278235317394e-01  -1.1582805011072200e-01  -1.2514904128587878e-01  -1.3115888193813605e-01  -1.3467224368187378e-01  -1.3655658183659664e-01  -1.3757625961407588e-01  -1.3830589567209597e-01  -1.3910844146277548e-01  -1.4015815699632334e-01  -1.4148673550439006e-01  -1.4303535786351873e-01  -1.4470171909598969e-01  -1.4637686419485757e-01  -1.4797100997503973e-01  -1.4942994012110478e-01  -1.5074434049076899e-01  -1.5195417950244691e-01  -1.5314965627157365e-01  -1.5446971016812269e-01  -1.5609893162209254e-01  -1.5826385974912713e-01  -1.6123042857838613e-01  -1.6530480090525748e-01  -1.7084157737205713e-01  -1.7825893926355701e-01  -1.8806319380456540e-01  -2.0084509505969689e-01  -2.1724664635335819e-01  -2.3770585082405127e-01  -2.6224343977300646e-01  -2.8958776644064033e-01  -3.1791913820633816e-01  -3.4215990812610964e-01  -3.6260729716807782e-01  -3.6174409275241298e-01  -3.8364447802526769e-01  -3.5759375181678943e-01  -3.0912829943033288e-01  -3.2449550998490206e-01  -3.1755884972105858e-01  -3.0379252048560312e-01  -2.8132080114342978e-01  -2.5191299010006635e-01  -2.1707578997835372e-01  -1.7858521976603067e-01  -1.3824139076488740e-01  -9.7776037155044640e-02  -5.8783450047532618e-02  -2.2677211532629866e-02  9.3383818275161960e-03  3.6288915050797892e-02  5.7445781634255108e-02  7.2338425156570837e-02  8.0762723482959417e-02  8.2785043100324293e-02  7.8741423208787187e-02  6.9231088865910034e-02  5.5102375719907934e-02  3.7426903151658635e-02  1.7454679154730979e-02  -3.4591966599951647e-03  -2.3962732749182501e-02  -4.2845183080021734e-02  -5.9181306412770106e-02  -7.2441544203417585e-02  -8.2528540569242442e-02  -8.9724356220576673e-02  -9.4568123003775692e-02  -9.7708315612206831e-02  -9.9773650828244118e-02  -1.0128769566082201e-01  -1.0263036964205048e-01  -1.0403607858300212e-01  -1.0561444010549653e-01  -1.0738158121936055e-01  -1.0929359723693306e-01  -1.1127715750619843e-01  -1.1325479188269180e-01  -1.1516423598655483e-01  -1.1697226950784902e-01  -1.1868398215065087e-01  -1.2034841263211800e-01  -1.2206140960638594e-01  -1.2396643380552641e-01  -1.2625411768606618e-01  -1.2916158240793738e-01  -1.3297314590110937e-01  -1.3802400367271525e-01  -1.4471001116158871e-01  -1.5349991338305904e-01  -1.6495088680932907e-01  -1.7967446866171752e-01  -1.9826451201757644e-01  -2.2094893783817529e-01  -2.4740930397014280e-01  -2.7580064517160741e-01  -3.0406403216953987e-01  -3.2662499263214745e-01  -3.4471589892347165e-01  -3.4183796742682787e-01  -3.5759375181678943e-01  -3.2585085008763143e-01  -2.8601950108687180e-01  -2.9700291894031955e-01  -2.8941466265802906e-01  -2.7566389932708540e-01  -2.5430191381730866e-01  -2.2658681847591211e-01  -1.9376039127887601e-01  -1.5737954968810983e-01  -1.1908142916298359e-01  -8.0488995878925759e-02  -4.3125576356235845e-02  -8.3570975739542946e-03  2.2647097141341440e-02  4.8940871540242334e-02  6.9819823248408672e-02  8.4834162928238435e-02  9.3796931675425188e-02  9.6787529109733386e-02  9.4149710834145181e-02  8.6482071220062295e-02  7.4617391969447819e-02  5.9585285858856071e-02  4.2551644263530919e-02  2.4730699881055789e-02  7.2732127323834996e-03  -8.8533671584701216e-03  -2.2965535606572829e-02  -3.4716263819344388e-02  -4.4083530323199741e-02  -5.1301516519802845e-02  -5.6760355223329777e-02  -6.0905564423287727e-02  -6.4159713591745285e-02  -6.6874649208591319e-02  -6.9311466142981740e-02  -7.1640388799320220e-02  -7.3952663192311086e-02  -7.6278399865668270e-02  -7.8606375770598688e-02  -8.0903243987645576e-02  -8.3130714062260941e-02  -8.5259981874529239e-02  -8.7283293198645973e-02  -8.9222810448276541e-02  -9.1137177216815857e-02  -9.3126189361217110e-02  -9.5334084216192924e-02  -9.7952048039581130e-02  -1.0122077757989152e-01  -1.0543448566084906e-01  -1.1094745986702811e-01  -1.1818586535097600e-01  -1.2765790664138468e-01  -1.3996171568035046e-01  -1.5571922249281756e-01  -1.7546907856515148e-01  -1.9922321221623615e-01  -2.2637136729629098e-01  -2.5456687553207680e-01  -2.8178263460297798e-01  -3.0200655639586638e-01  -3.1806214458193910e-01  -3.1286379271250075e-01  -3.2585085008763143e-01  -2.8963563474962128e-01  -2.6718743597371641e-01  -2.7130219917419363e-01  -2.6198992485658262e-01  -2.4723279939990836e-01  -2.2605946548120165e-01  -1.9938401585571935e-01  -1.6823184752998463e-01  -1.3390758678829123e-01  -9.7839080971440923e-02  -6.1484122177281046e-02  -2.6240687221860026e-02  6.6200872606684653e-03  3.6003015653203338e-02  6.1023213988035799e-02  8.1029425867851640e-02  9.5619012417510835e-02  1.0464595220042591e-01  1.0822189930028842e-01  1.0670907497981728e-01  1.0070249861367041e-01  9.0997949709416312e-02  7.8541831158759540e-02  6.4360937102621044e-02  4.9475030021783377e-02  3.4802593130879675e-02  2.1077083265329616e-02  8.7927635724066623e-03  -1.8073934443156039e-03  -1.0702156475143748e-02  -1.8033978696103011e-02  -2.4041414458174246e-02  -2.8998455460416690e-02  -3.3169695806526359e-02  -3.6782902437413820e-02  -4.0016144458824968e-02  -4.2995421155538331e-02  -4.5799152578418330e-02  -4.8466883044147133e-02  -5.1010250022282669e-02  -5.3424833068088665e-02  -5.5701808984941523e-02  -5.7838729171915237e-02  -5.9848990746259476e-02  -6.1769891589153830e-02  -6.3669299979609656e-02  -6.5651176284317506e-02  -6.7860256195347454e-02  -7.0486473097199978e-02  -7.3769829310547014e-02  -7.8007118469706857e-02  -8.3561172463728212e-02  -9.0875091277587416e-02  -1.0048075570521664e-01  -1.1300018865019770e-01  -1.2904730945373308e-01  -1.4909654343948039e-01  -1.7295089058953486e-01  -1.9979254650896228e-01  -2.2687943371456221e-01  -2.5250198497578480e-01  -2.7015735383913675e-01  -2.8475459694507854e-01  -2.7710204149227513e-01  -2.8963563474962128e-01  -2.5033983621847156e-01  -2.5349202536105225e-01  -2.4922180369387237e-01  -2.3742444164615603e-01  -2.2080137136831607e-01  -1.9898879151829371e-01  -1.7265819691189535e-01  -1.4263592620564902e-01  -1.0999023750527967e-01  -7.5925964853058386e-02  -4.1701718406492866e-02  -8.5495604249178209e-03  2.2392239219356572e-02  5.0132721055153109e-02  7.3868021926062108e-02  9.3009173997757405e-02  1.0719959700669036e-01  1.1632326975039058e-01  1.2050353349299518e-01  1.2009137489362505e-01  1.1564121880172164e-01  1.0787212860366074e-01  9.7613555933709226e-02  8.5737768486058200e-02  7.3085559886832990e-02  6.0396119685648238e-02  4.8253593954027264e-02  3.7059972010665597e-02  2.7037036470326421e-02  1.8252229622946561e-02  1.0658158041093532e-02  4.1348618085536599e-03  -1.4730147821148080e-03  -6.3278584702684002e-03  -1.0579958137405983e-02  -1.4356355407651466e-02  -1.7755991120967499e-02  -2.0849620267081950e-02  -2.3683236227257418e-02  -2.6283937550364983e-02  -2.8667293535695065e-02  -3.0845398320209383e-02  -3.2834969829953327e-02  -3.4665052722376882e-02  -3.6384087445126563e-02  -3.8066294092522719e-02  -3.9817480065466898e-02  -4.1780555741536697e-02  -4.4141268485455680e-02  -4.7134874773478760e-02  -5.1055111561680570e-02  -5.6265818551105566e-02  -6.3217380554859828e-02  -7.2453419542983968e-02  -8.4606602965441174e-02  -1.0026996658506157e-01  -1.1985560971025512e-01  -1.4298247105812781e-01  -1.6872804657460419e-01  -1.9405102880453057e-01  -2.1779608789167476e-01  -2.3279003539221435e-01  -2.4648735546679046e-01  -2.3592545916058080e-01  -2.5033983621847156e-01  -2.0947356999439662e-01  -2.4466767307073983e-01  -2.3132678643844412e-01  -2.1684975878557466e-01  -1.9805319349616532e-01  -1.7520504343482760e-01  -1.4879039666893551e-01  -1.1949519105817495e-01  -8.8201822241217434e-02  -5.5916396173565926e-02  -2.3703177904181607e-02  7.3824432545802222e-03  3.6354977542365163e-02  6.2350475160876433e-02  8.4667118581981254e-02  1.0279452178858699e-01  1.1643199517324836e-01  1.2549597961701658e-01  1.3011638084739777e-01  1.3062112710601581e-01  1.2750819534958971e-01  1.2140513534007018e-01  1.1301783234255949e-01  1.0307283554010668e-01  9.2260067695099771e-02  8.1183999293318682e-02  7.0330268552520156e-02  6.0051325590048762e-02  5.0570189555772749e-02  4.1997704097754746e-02  3.4357078959133251e-02  2.7610035410398529e-02  2.1680683309724922e-02  1.6475152918083678e-02  1.1896429273763479e-02  7.8545432900611993e-03  4.2726104539649807e-03  1.0892658075050358e-03  -1.7418699361829971e-03  -4.2550544272271411e-03  -6.4769349873600515e-03  -8.4320996302083510e-03  -1.0149123080920247e-02  -1.1666737127450328e-02  -1.3039873028068577e-02  -1.4345518856413077e-02  -1.5688466722440297e-02  -1.7207225576332075e-02  -1.9080609706211248e-02  -2.1535722708097560e-02  -2.4858711072316634e-02  -2.9408307938294326e-02  -3.5634164244279815e-02  -4.4081646674205270e-02  -5.5383820425736689e-02  -7.0106227002566579e-02  -8.8611539934059042e-02  -1.1037342126416148e-01  -1.3447039064571920e-01  -1.5763178265885863e-01  -1.7943456113650214e-01  -1.9178288650493541e-01  -2.0511726506518255e-01  -1.9114195052531741e-01  -2.0947356999439662e-01  -1.6860730377032171e-01  -2.3981158541439626e-01  -2.1732600908986213e-01  -2.0036643703533849e-01  -1.7942898617582184e-01  -1.5545263524144742e-01  -1.2876697312380717e-01  -9.9957285721528760e-02  -6.9760206175817199e-02  -3.9016369371892401e-02  -8.6172370063313485e-03  2.0549794436983671e-02  4.7653082768296745e-02  7.1962252202453822e-02  9.2885298923457801e-02  1.0999595164666720e-01  1.2305055358589255e-01  1.3199400904790759e-01  1.3695448171541710e-01  1.3822671185886079e-01  1.3624438651972876e-01  1.3154300681465186e-01  1.2471617409825513e-01  1.1636967951618239e-01  1.0707871287966320e-01  9.7353251234114396e-02  8.7615158824410108e-02  7.8188118106320606e-02  6.9299083305816939e-02  6.1088295588045780e-02  5.3624337567906404e-02  4.6921089985459859e-02  4.0954268738642156e-02  3.5676107718575309e-02  3.1027409092040763e-02  2.6946661134658483e-02  2.3376188770107765e-02  2.0265528267902486e-02  1.7572339218673311e-02  1.5261288673024499e-02  1.3301365628451202e-02  1.1662099155206192e-02  1.0309069043142542e-02  9.1990302686188324e-03  8.2748214864766540e-03  7.4601240490220393e-03  6.6539573036728224e-03  5.7246452210887588e-03  4.5027033237956503e-03  2.7719353477428984e-03  2.5732743585248394e-04  -3.3899794987036847e-03  -8.6125888177290885e-03  -1.5950067086403227e-02  -2.6029414203400159e-02  -3.9388903747304825e-02  -5.6363041918085707e-02  -7.6325531059334983e-02  -9.8448747752836685e-02  -1.1926980646229654e-01  -1.3921829673450054e-01  -1.4899221736807547e-01  -1.6245817824085010e-01  -1.4452949172721305e-01  -1.6860730377032171e-01  -1.2931150523917195e-01  -2.3786223701129189e-01  -2.0657527491486816e-01  -1.8753490394613231e-01  -1.6468147809434974e-01  -1.3968516946745474e-01  -1.1272505979148280e-01  -8.4310126384373449e-02  -5.5061094561053250e-02  -2.5683227948994351e-02  3.0794329899076884e-03  3.0488878637558718e-02  5.5855771950247032e-02  7.8577499970400422e-02  9.8169566757510790e-02  1.1428877450245419e-01  1.2674711218621781e-01  1.3551570663250184e-01  1.4071861855194545e-01  1.4261682173431275e-01  1.4158343769561982e-01  1.3807221953971766e-01  1.3258220502464299e-01  1.2562212648705501e-01  1.1767825889324696e-01  1.0918877908435760e-01  1.0052649087775224e-01  9.1990300505283770e-02  8.3804522267534626e-02  7.6124249721913770e-02  6.9044731090696865e-02  6.2612806354514883e-02  5.6838824828040646e-02  5.1707872279358656e-02  4.7189529468337099e-02  4.3245698695761836e-02  3.9836302140192750e-02  3.6922853149598603e-02  3.4470063610620938e-02  3.2445749287012958e-02  3.0819357797388650e-02  2.9559439712299129e-02  2.8630360453721745e-02  2.7988467720087951e-02  2.7577851390465771e-02  2.7325701779441911e-02  2.7137143067493021e-02  2.6889236514946135e-02  2.6423593050167091e-02  2.5536852515885007e-02  2.3967617176859798e-02  2.1380293719942559e-02  1.7343879291917497e-02  1.1329609879770329e-02  2.7194941096943407e-03  -9.0031564492230893e-03  -2.4169247056677973e-02  -4.2096777942372196e-02  -6.2121214872339139e-02  -8.0596966391904445e-02  -9.8876990500890785e-02  -1.0617944537690634e-01  -1.2022922149115788e-01  -9.7814002936020050e-02  -1.2931150523917195e-01  -9.3096289901161769e-02  -2.3789371502373932e-01  -1.9841574163938769e-01  -1.7773689699111136e-01  -1.5324307333881113e-01  -1.2739824189173485e-01  -1.0023067557705631e-01  -7.2189790430396708e-02  -4.3798953186693780e-02  -1.5649372418297919e-02  1.1640878473516802e-02  3.7463678555452760e-02  6.1255743089032026e-02  8.2529486957021711e-02  1.0089828421872872e-01  1.1609480327724152e-01  1.2798145876936559e-01  1.3655244848384637e-01  1.4192734944554020e-01  1.4433684792188933e-01  1.4410183903164905e-01  1.4160780431817110e-01  1.3727689577967009e-01  1.3154039761197911e-01  1.2481407624698802e-01  1.1747837565372107e-01  1.0986458805193353e-01  1.0224722849235533e-01  9.4842073002224275e-02  8.7808794429480780e-02  8.1256896094896919e-02  7.5253629871089772e-02  6.9832738376898032e-02  6.5003074855423670e-02  6.0756409761552860e-02  5.7073959708002366e-02  5.3931394482742520e-02  5.1302242928756722e-02  4.9159763852195754e-02  4.7477433611826200e-02  4.6228260196036923e-02  4.5383142685553012e-02  4.4908476378043155e-02  4.4763152348002287e-02  4.4895024334535856e-02  4.5236814628189279e-02  4.5701298953455233e-02  4.6175442140836548e-02  4.6512896923784991e-02  4.6524105751472630e-02  4.5962578707715349e-02  4.4507888325072138e-02  4.1743308427786924e-02  3.7153383822788807e-02  3.0129290848725804e-02  2.0167080960637691e-02  6.9169019700712139e-03  -8.9211898619900795e-03  -2.6886564949929699e-02  -4.3144669793479418e-02  -6.0000568054357474e-02  -6.4961130653118496e-02  -8.0010518630877062e-02  -5.2605230420314432e-02  -9.3096289901161769e-02  -6.1353388172003830e-02  -2.3920491102215002e-01  -1.9231036168596480e-01  -1.7037452595064306e-01  -1.4449257402238894e-01  -1.1796126474732065e-01  -9.0659346521378220e-02  -6.2989058728444292e-02  -3.5388674338881154e-02  -8.3507570201088611e-03  1.7615604681875913e-02  4.2014868422623669e-02  6.4393395527987868e-02  8.4364049629669424e-02  1.0162593280106198e-01  1.1597826741306407e-01  1.2732774061312147e-01  1.3568900287159585e-01  1.4117846944684792e-01  1.4400206282309921e-01  1.4443805463214546e-01  1.4281658904084513e-01  1.3949776972895464e-01  1.3485024334708179e-01  1.2923202559685862e-01  1.2297489687512149e-01  1.1637313915372295e-01  1.0967681