<?xml version="1.0"?>
<VTKFile type="UnstructuredGrid"  version="0.1"  >
<UnstructuredGrid>
<Piece  NumberOfPoints="4225" NumberOfCells="8192">
<Points>
<DataArray  type="Float64"  NumberOfComponents="3"  format="ascii">-1 -1 0  -0.96875 -1 0  -0.9375 -1 0  -0.90625 -1 0  -0.875 -1 0  -0.84375 -1 0  -0.8125 -1 0  -0.78125 -1 0  -0.75 -1 0  -0.71875 -1 0  -0.6875 -1 0  -0.65625 -1 0  -0.625 -1 0  -0.59375 -1 0  -0.5625 -1 0  -0.53125 -1 0  -0.5 -1 0  -0.46875 -1 0  -0.4375 -1 0  -0.40625 -1 0  -0.375 -1 0  -0.34375 -1 0  -0.3125 -1 0  -0.28125 -1 0  -0.25 -1 0  -0.21875 -1 0  -0.1875 -1 0  -0.15625 -1 0  -0.125 -1 0  -0.09375 -1 0  -0.0625 -1 0  -0.03125 -1 0  0 -1 0  0.03125 -1 0  0.0625 -1 0  0.09375 -1 0  0.125 -1 0  0.15625 -1 0  0.1875 -1 0  0.21875 -1 0  0.25 -1 0  0.28125 -1 0  0.3125 -1 0  0.34375 -1 0  0.375 -1 0  0.40625 -1 0  0.4375 -1 0  0.46875 -1 0  0.5 -1 0  0.53125 -1 0  0.5625 -1 0  0.59375 -1 0  0.625 -1 0  0.65625 -1 0  0.6875 -1 0  0.71875 -1 0  0.75 -1 0  0.78125 -1 0  0.8125 -1 0  0.84375 -1 0  0.875 -1 0  0.90625 -1 0  0.9375 -1 0  0.96875 -1 0  1 -1 0  -1 -0.96875 0  -0.96875 -0.96875 0  -0.9375 -0.96875 0  -0.90625 -0.96875 0  -0.875 -0.96875 0  -0.84375 -0.96875 0  -0.8125 -0.96875 0  -0.78125 -0.96875 0  -0.75 -0.96875 0  -0.71875 -0.96875 0  -0.6875 -0.96875 0  -0.65625 -0.96875 0  -0.625 -0.96875 0  -0.59375 -0.96875 0  -0.5625 -0.96875 0  -0.53125 -0.96875 0  -0.5 -0.96875 0  -0.46875 -0.96875 0  -0.4375 -0.96875 0  -0.40625 -0.96875 0  -0.375 -0.96875 0  -0.34375 -0.96875 0  -0.3125 -0.96875 0  -0.28125 -0.96875 0  -0.25 -0.96875 0  -0.21875 -0.96875 0  -0.1875 -0.96875 0  -0.15625 -0.96875 0  -0.125 -0.96875 0  -0.09375 -0.96875 0  -0.0625 -0.96875 0  -0.03125 -0.96875 0  0 -0.96875 0  0.03125 -0.96875 0  0.0625 -0.96875 0  0.09375 -0.96875 0  0.125 -0.96875 0  0.15625 -0.96875 0  0.1875 -0.96875 0  0.21875 -0.96875 0  0.25 -0.96875 0  0.28125 -0.96875 0  0.3125 -0.96875 0  0.34375 -0.96875 0  0.375 -0.96875 0  0.40625 -0.96875 0  0.4375 -0.96875 0  0.46875 -0.96875 0  0.5 -0.96875 0  0.53125 -0.96875 0  0.5625 -0.96875 0  0.59375 -0.96875 0  0.625 -0.96875 0  0.65625 -0.96875 0  0.6875 -0.96875 0  0.71875 -0.96875 0  0.75 -0.96875 0  0.78125 -0.96875 0  0.8125 -0.96875 0  0.84375 -0.96875 0  0.875 -0.96875 0  0.90625 -0.96875 0  0.9375 -0.96875 0  0.96875 -0.96875 0  1 -0.96875 0  -1 -0.9375 0  -0.96875 -0.9375 0  -0.9375 -0.9375 0  -0.90625 -0.9375 0  -0.875 -0.9375 0  -0.84375 -0.9375 0  -0.8125 -0.9375 0  -0.78125 -0.9375 0  -0.75 -0.9375 0  -0.71875 -0.9375 0  -0.6875 -0.9375 0  -0.65625 -0.9375 0  -0.625 -0.9375 0  -0.59375 -0.9375 0  -0.5625 -0.9375 0  -0.53125 -0.9375 0  -0.5 -0.9375 0  -0.46875 -0.9375 0  -0.4375 -0.9375 0  -0.40625 -0.9375 0  -0.375 -0.9375 0  -0.34375 -0.9375 0  -0.3125 -0.9375 0  -0.28125 -0.9375 0  -0.25 -0.9375 0  -0.21875 -0.9375 0  -0.1875 -0.9375 0  -0.15625 -0.9375 0  -0.125 -0.9375 0  -0.09375 -0.9375 0  -0.0625 -0.9375 0  -0.03125 -0.9375 0  0 -0.9375 0  0.03125 -0.9375 0  0.0625 -0.9375 0  0.09375 -0.9375 0  0.125 -0.9375 0  0.15625 -0.9375 0  0.1875 -0.9375 0  0.21875 -0.9375 0  0.25 -0.9375 0  0.28125 -0.9375 0  0.3125 -0.9375 0  0.34375 -0.9375 0  0.375 -0.9375 0  0.40625 -0.9375 0  0.4375 -0.9375 0  0.46875 -0.9375 0  0.5 -0.9375 0  0.53125 -0.9375 0  0.5625 -0.9375 0  0.59375 -0.9375 0  0.625 -0.9375 0  0.65625 -0.9375 0  0.6875 -0.9375 0  0.71875 -0.9375 0  0.75 -0.9375 0  0.78125 -0.9375 0  0.8125 -0.9375 0  0.84375 -0.9375 0  0.875 -0.9375 0  0.90625 -0.9375 0  0.9375 -0.9375 0  0.96875 -0.9375 0  1 -0.9375 0  -1 -0.90625 0  -0.96875 -0.90625 0  -0.9375 -0.90625 0  -0.90625 -0.90625 0  -0.875 -0.90625 0  -0.84375 -0.90625 0  -0.8125 -0.90625 0  -0.78125 -0.90625 0  -0.75 -0.90625 0  -0.71875 -0.90625 0  -0.6875 -0.90625 0  -0.65625 -0.90625 0  -0.625 -0.90625 0  -0.59375 -0.90625 0  -0.5625 -0.90625 0  -0.53125 -0.90625 0  -0.5 -0.90625 0  -0.46875 -0.90625 0  -0.4375 -0.90625 0  -0.40625 -0.90625 0  -0.375 -0.90625 0  -0.34375 -0.90625 0  -0.3125 -0.90625 0  -0.28125 -0.90625 0  -0.25 -0.90625 0  -0.21875 -0.90625 0  -0.1875 -0.90625 0  -0.15625 -0.90625 0  -0.125 -0.90625 0  -0.09375 -0.90625 0  -0.0625 -0.90625 0  -0.03125 -0.90625 0  0 -0.90625 0  0.03125 -0.90625 0  0.0625 -0.90625 0  0.09375 -0.90625 0  0.125 -0.90625 0  0.15625 -0.90625 0  0.1875 -0.90625 0  0.21875 -0.90625 0  0.25 -0.90625 0  0.28125 -0.90625 0  0.3125 -0.90625 0  0.34375 -0.90625 0  0.375 -0.90625 0  0.40625 -0.90625 0  0.4375 -0.90625 0  0.46875 -0.90625 0  0.5 -0.90625 0  0.53125 -0.90625 0  0.5625 -0.90625 0  0.59375 -0.90625 0  0.625 -0.90625 0  0.65625 -0.90625 0  0.6875 -0.90625 0  0.71875 -0.90625 0  0.75 -0.90625 0  0.78125 -0.90625 0  0.8125 -0.90625 0  0.84375 -0.90625 0  0.875 -0.90625 0  0.90625 -0.90625 0  0.9375 -0.90625 0  0.96875 -0.90625 0  1 -0.90625 0  -1 -0.875 0  -0.96875 -0.875 0  -0.9375 -0.875 0  -0.90625 -0.875 0  -0.875 -0.875 0  -0.84375 -0.875 0  -0.8125 -0.875 0  -0.78125 -0.875 0  -0.75 -0.875 0  -0.71875 -0.875 0  -0.6875 -0.875 0  -0.65625 -0.875 0  -0.625 -0.875 0  -0.59375 -0.875 0  -0.5625 -0.875 0  -0.53125 -0.875 0  -0.5 -0.875 0  -0.46875 -0.875 0  -0.4375 -0.875 0  -0.40625 -0.875 0  -0.375 -0.875 0  -0.34375 -0.875 0  -0.3125 -0.875 0  -0.28125 -0.875 0  -0.25 -0.875 0  -0.21875 -0.875 0  -0.1875 -0.875 0  -0.15625 -0.875 0  -0.125 -0.875 0  -0.09375 -0.875 0  -0.0625 -0.875 0  -0.03125 -0.875 0  0 -0.875 0  0.03125 -0.875 0  0.0625 -0.875 0  0.09375 -0.875 0  0.125 -0.875 0  0.15625 -0.875 0  0.1875 -0.875 0  0.21875 -0.875 0  0.25 -0.875 0  0.28125 -0.875 0  0.3125 -0.875 0  0.34375 -0.875 0  0.375 -0.875 0  0.40625 -0.875 0  0.4375 -0.875 0  0.46875 -0.875 0  0.5 -0.875 0  0.53125 -0.875 0  0.5625 -0.875 0  0.59375 -0.875 0  0.625 -0.875 0  0.65625 -0.875 0  0.6875 -0.875 0  0.71875 -0.875 0  0.75 -0.875 0  0.78125 -0.875 0  0.8125 -0.875 0  0.84375 -0.875 0  0.875 -0.875 0  0.90625 -0.875 0  0.9375 -0.875 0  0.96875 -0.875 0  1 -0.875 0  -1 -0.84375 0  -0.96875 -0.84375 0  -0.9375 -0.84375 0  -0.90625 -0.84375 0  -0.875 -0.84375 0  -0.84375 -0.84375 0  -0.8125 -0.84375 0  -0.78125 -0.84375 0  -0.75 -0.84375 0  -0.71875 -0.84375 0  -0.6875 -0.84375 0  -0.65625 -0.84375 0  -0.625 -0.84375 0  -0.59375 -0.84375 0  -0.5625 -0.84375 0  -0.53125 -0.84375 0  -0.5 -0.84375 0  -0.46875 -0.84375 0  -0.4375 -0.84375 0  -0.40625 -0.84375 0  -0.375 -0.84375 0  -0.34375 -0.84375 0  -0.3125 -0.84375 0  -0.28125 -0.84375 0  -0.25 -0.84375 0  -0.21875 -0.84375 0  -0.1875 -0.84375 0  -0.15625 -0.84375 0  -0.125 -0.84375 0  -0.09375 -0.84375 0  -0.0625 -0.84375 0  -0.03125 -0.84375 0  0 -0.84375 0  0.03125 -0.84375 0  0.0625 -0.84375 0  0.09375 -0.84375 0  0.125 -0.84375 0  0.15625 -0.84375 0  0.1875 -0.84375 0  0.21875 -0.84375 0  0.25 -0.84375 0  0.28125 -0.84375 0  0.3125 -0.84375 0  0.34375 -0.84375 0  0.375 -0.84375 0  0.40625 -0.84375 0  0.4375 -0.84375 0  0.46875 -0.84375 0  0.5 -0.84375 0  0.53125 -0.84375 0  0.5625 -0.84375 0  0.59375 -0.84375 0  0.625 -0.84375 0  0.65625 -0.84375 0  0.6875 -0.84375 0  0.71875 -0.84375 0  0.75 -0.84375 0  0.78125 -0.84375 0  0.8125 -0.84375 0  0.84375 -0.84375 0  0.875 -0.84375 0  0.90625 -0.84375 0  0.9375 -0.84375 0  0.96875 -0.84375 0  1 -0.84375 0  -1 -0.8125 0  -0.96875 -0.8125 0  -0.9375 -0.8125 0  -0.90625 -0.8125 0  -0.875 -0.8125 0  -0.84375 -0.8125 0  -0.8125 -0.8125 0  -0.78125 -0.8125 0  -0.75 -0.8125 0  -0.71875 -0.8125 0  -0.6875 -0.8125 0  -0.65625 -0.8125 0  -0.625 -0.8125 0  -0.59375 -0.8125 0  -0.5625 -0.8125 0  -0.53125 -0.8125 0  -0.5 -0.8125 0  -0.46875 -0.8125 0  -0.4375 -0.8125 0  -0.40625 -0.8125 0  -0.375 -0.8125 0  -0.34375 -0.8125 0  -0.3125 -0.8125 0  -0.28125 -0.8125 0  -0.25 -0.8125 0  -0.21875 -0.8125 0  -0.1875 -0.8125 0  -0.15625 -0.8125 0  -0.125 -0.8125 0  -0.09375 -0.8125 0  -0.0625 -0.8125 0  -0.03125 -0.8125 0  0 -0.8125 0  0.03125 -0.8125 0  0.0625 -0.8125 0  0.09375 -0.8125 0  0.125 -0.8125 0  0.15625 -0.8125 0  0.1875 -0.8125 0  0.21875 -0.8125 0  0.25 -0.8125 0  0.28125 -0.8125 0  0.3125 -0.8125 0  0.34375 -0.8125 0  0.375 -0.8125 0  0.40625 -0.8125 0  0.4375 -0.8125 0  0.46875 -0.8125 0  0.5 -0.8125 0  0.53125 -0.8125 0  0.5625 -0.8125 0  0.59375 -0.8125 0  0.625 -0.8125 0  0.65625 -0.8125 0  0.6875 -0.8125 0  0.71875 -0.8125 0  0.75 -0.8125 0  0.78125 -0.8125 0  0.8125 -0.8125 0  0.84375 -0.8125 0  0.875 -0.8125 0  0.90625 -0.8125 0  0.9375 -0.8125 0  0.96875 -0.8125 0  1 -0.8125 0  -1 -0.78125 0  -0.96875 -0.78125 0  -0.9375 -0.78125 0  -0.90625 -0.78125 0  -0.875 -0.78125 0  -0.84375 -0.78125 0  -0.8125 -0.78125 0  -0.78125 -0.78125 0  -0.75 -0.78125 0  -0.71875 -0.78125 0  -0.6875 -0.78125 0  -0.65625 -0.78125 0  -0.625 -0.78125 0  -0.59375 -0.78125 0  -0.5625 -0.78125 0  -0.53125 -0.78125 0  -0.5 -0.78125 0  -0.46875 -0.78125 0  -0.4375 -0.78125 0  -0.40625 -0.78125 0  -0.375 -0.78125 0  -0.34375 -0.78125 0  -0.3125 -0.78125 0  -0.28125 -0.78125 0  -0.25 -0.78125 0  -0.21875 -0.78125 0  -0.1875 -0.78125 0  -0.15625 -0.78125 0  -0.125 -0.78125 0  -0.09375 -0.78125 0  -0.0625 -0.78125 0  -0.03125 -0.78125 0  0 -0.78125 0  0.03125 -0.78125 0  0.0625 -0.78125 0  0.09375 -0.78125 0  0.125 -0.78125 0  0.15625 -0.78125 0  0.1875 -0.78125 0  0.21875 -0.78125 0  0.25 -0.78125 0  0.28125 -0.78125 0  0.3125 -0.78125 0  0.34375 -0.78125 0  0.375 -0.78125 0  0.40625 -0.78125 0  0.4375 -0.78125 0  0.46875 -0.78125 0  0.5 -0.78125 0  0.53125 -0.78125 0  0.5625 -0.78125 0  0.59375 -0.78125 0  0.625 -0.78125 0  0.65625 -0.78125 0  0.6875 -0.78125 0  0.71875 -0.78125 0  0.75 -0.78125 0  0.78125 -0.78125 0  0.8125 -0.78125 0  0.84375 -0.78125 0  0.875 -0.78125 0  0.90625 -0.78125 0  0.9375 -0.78125 0  0.96875 -0.78125 0  1 -0.78125 0  -1 -0.75 0  -0.96875 -0.75 0  -0.9375 -0.75 0  -0.90625 -0.75 0  -0.875 -0.75 0  -0.84375 -0.75 0  -0.8125 -0.75 0  -0.78125 -0.75 0  -0.75 -0.75 0  -0.71875 -0.75 0  -0.6875 -0.75 0  -0.65625 -0.75 0  -0.625 -0.75 0  -0.59375 -0.75 0  -0.5625 -0.75 0  -0.53125 -0.75 0  -0.5 -0.75 0  -0.46875 -0.75 0  -0.4375 -0.75 0  -0.40625 -0.75
[...]
<PointData  Scalars="f_15"> 
<DataArray  type="Float64"  Name="f_15"  format="ascii">-4.5533991268841706e-01  -4.5096529831665444e-01  -4.3800956917836087e-01  -4.1697060667866503e-01  -3.8865692634764359e-01  -3.5415660704192303e-01  -3.1479547668442048e-01  -2.7208616144079811e-01  -2.2766995634420850e-01  -1.8325375124761895e-01  -1.4054443600399655e-01  -1.0118330564649394e-01  -6.6682986340773409e-02  -3.8369306009752017e-02  -1.7330343510056065e-02  -4.3746143717627358e-03  0.0000000000000000e+00  -4.3746143717627358e-03  -1.7330343510056093e-02  -3.8369306009752038e-02  -6.6682986340773465e-02  -1.0118330564649400e-01  -1.4054443600399669e-01  -1.8325375124761903e-01  -2.2766995634420853e-01  -2.7208616144079811e-01  -3.1479547668442043e-01  -3.5415660704192309e-01  -3.8865692634764359e-01  -4.1697060667866503e-01  -4.3800956917836087e-01  -4.5096529831665444e-01  -4.5533991268841706e-01  -4.5096529831665444e-01  -4.3800956917836087e-01  -4.1697060667866503e-01  -3.8865692634764359e-01  -3.5415660704192309e-01  -3.1479547668442043e-01  -2.7208616144079811e-01  -2.2766995634420853e-01  -1.8325375124761903e-01  -1.4054443600399669e-01  -1.0118330564649400e-01  -6.6682986340773465e-02  -3.8369306009752038e-02  -1.7330343510056093e-02  -4.3746143717627358e-03  0.0000000000000000e+00  -4.3746143717627358e-03  -1.7330343510056065e-02  -3.8369306009752017e-02  -6.6682986340773409e-02  -1.0118330564649394e-01  -1.4054443600399655e-01  -1.8325375124761895e-01  -2.2766995634420850e-01  -2.7208616144079811e-01  -3.1479547668442048e-01  -3.5415660704192303e-01  -3.8865692634764359e-01  -4.1697060667866503e-01  -4.3800956917836087e-01  -4.5096529831665444e-01  -4.5533991268841706e-01  -4.5096529831665444e-01  -3.3224933009170993e-01  -3.0796662539150765e-01  -2.6611370608827833e-01  -2.1519697078146621e-01  -1.5662860883317573e-01  -9.2439736129959940e-02  -2.4687363851032325e-02  4.4543372388465001e-02  1.1317293096316085e-01  1.7917475412675787e-01  2.4063119174149242e-01  2.9579054001796606e-01  3.4311974226689723e-01  3.8134954681163585e-01  4.0951057660543838e-01  4.2695984052340541e-01  4.3339754721863821e-01  4.2887417891442542e-01  4.1378738806588733e-01  3.8886785353135939e-01  3.5515243530486629e-01  3.1394239004015911e-01  2.6674408480127804e-01  2.1519068628260551e-01  1.6094620051484146e-01  1.0559861691305013e-01  5.0555407767899622e-02  -3.0404714764249133e-03  -5.4356464468744745e-02  -1.0286848274508727e-01  -1.4831475437642827e-01  -1.9062201470673251e-01  -2.2982675172476877e-01  -2.6601111095659036e-01  -2.9926290354855745e-01  -3.2965811543372425e-01  -3.5725712196573894e-01  -3.8210490609876535e-01  -4.0422895201589792e-01  -4.2363370916472404e-01  -4.4029429577483392e-01  -4.5415386409871200e-01  -4.6512818367339026e-01  -4.7311906190482017e-01  -4.7803553811990257e-01  -4.7981981309775468e-01  -4.7847335709383965e-01  -4.7407840523858419e-01  -4.6681032586009480e-01  -4.5693782957784973e-01  -4.4480940414010861e-01  -4.3082776445646770e-01  -4.1541382712524849e-01  -3.9897514076948459e-01  -3.8186843463347903e-01  -3.6445302788589695e-01  -3.4705134797840420e-01  -3.3054978839790677e-01  -3.1562782480551410e-01  -3.0649343351011082e-01  -3.0095198606223417e-01  -3.1985790477976228e-01  -3.1171021253484532e-01  -4.5096529831665444e-01  -4.3800956917836087e-01  -3.1248933241047716e-01  -3.2360679033085737e-01  -2.9574156448310457e-01  -2.6163763406692386e-01  -2.2035915981901261e-01  -1.7374665374849099e-01  -1.2348049618226367e-01  -7.1308450231634402e-02  -1.9003962301110140e-02  3.1681386930024778e-02  7.9076670722112677e-02  1.2165247334600132e-01  1.5807716571219449e-01  1.8726452484704417e-01  2.0841096455930250e-01  2.2102180086590165e-01  2.2492647465373938e-01  2.2028233711855988e-01  2.0756624309796262e-01  1.8755241900142550e-01  1.6127461269567395e-01  1.2997026005326348e-01  9.5005531213594480e-02  5.7782991842772732e-02  1.9638896257812285e-02  -1.8256692389473153e-02  -5.4979204768256143e-02  -8.9891250296010736e-02  -1.2263721767974602e-01  -1.5309383838903254e-01  -1.8129205324996303e-01  -2.0733205007403374e-01  -2.3131196484406380e-01  -2.5328294403825968e-01  -2.7323352347291119e-01  -2.9109818263327081e-01  -3.0678097048413161e-01  -3.2018474450941686e-01  -3.3123890686638335e-01  -3.3992125311277294e-01  -3.4627203401630763e-01  -3.5039952759288800e-01  -3.5247726554554210e-01  -3.5273341328913438e-01  -3.5143369166891086e-01  -3.4885999699914794e-01  -3.4528793838112271e-01  -3.4096679825592713e-01  -3.3610532886535638e-01  -3.3086569475193756e-01  -3.2536620072409883e-01  -3.1969285772291900e-01  -3.1391553760717905e-01  -3.0811729427264234e-01  -3.0241004834264640e-01  -2.9703936987390483e-01  -2.9230676331467720e-01  -2.8920295955190461e-01  -2.8811005752033636e-01  -2.9324874756730263e-01  -2.9935914973767458e-01  -3.2859253093842083e-01  -3.0797874611618548e-01  -4.3800956917836087e-01  -4.1697060667866503e-01  -2.9976376953556222e-01  -3.0301547776109783e-01  -2.7205148870743012e-01  -2.3773337778118167e-01  -1.9608108027804358e-01  -1.4919303549870827e-01  -9.8547396908240700e-02  -4.5771476573214030e-02  7.4381421506746247e-03  5.9357129916087936e-02  1.0829572223246328e-01  1.5266886502836471e-01  1.9106565184675195e-01  2.2231120226549275e-01  2.4551681865598335e-01  2.6011645923272392e-01  2.6588867528304833e-01  2.6296337380127066e-01  2.5181225880682595e-01  2.3322119908636627e-01  2.0824257857720077e-01  1.7812674331342673e-01  1.4423445417491201e-01  1.0793682278489018e-01  7.0514340361414921e-02  3.3070121500230663e-02  -3.5280521023115363e-03  -3.8667836813783905e-02  -7.1974505060856869e-02  -1.0326410611769929e-01  -1.3248202680755641e-01  -1.5964194113370733e-01  -1.8477653871610519e-01  -2.0790586351730778e-01  -2.2902366305325703e-01  -2.4809828039971973e-01  -2.6508277159614435e-01  -2.7992892687670001e-01  -2.9260100357075841e-01  -3.0308659320185827e-01  -3.1140348156480163e-01  -3.1760246756421040e-01  -3.2176672084790003e-01  -3.2400861741216053e-01  -3.2446509264918999e-01  -3.2329258163599828e-01  -3.2066244245334324e-01  -3.1675756792516530e-01  -3.1177048560784049e-01  -3.0590311007178506e-01  -2.9936769028552068e-01  -2.9239013175207296e-01  -2.8521275836368837e-01  -2.7811097213459823e-01  -2.7138960152118752e-01  -2.6548997523965556e-01  -2.6083724003439973e-01  -2.5858617843616499e-01  -2.5875257563550774e-01  -2.6586324756335306e-01  -2.7109731010387006e-01  -3.0114800236285216e-01  -2.6074649202730038e-01  -4.1697060667866503e-01  -3.8865692634764359e-01  -2.9999179075237731e-01  -2.9367059140150237e-01  -2.6376641029736575e-01  -2.3079684982111576e-01  -1.9206144870193137e-01  -1.4939723159669546e-01  -1.0389772920679667e-01  -5.6889369221366663e-02  -9.7574313049693922e-03  3.6080687569381750e-02  7.9228068730632359e-02  1.1836805534724286e-01  1.5232598779322423e-01  1.8012644112361162e-01  2.0104079507161349e-01  2.1462158127252506e-01  2.2072128968268834e-01  2.1949416285136153e-01  2.1137993511543440e-01  1.9706914884095167e-01  1.7745080161937057e-01  1.5354519833934721e-01  1.2642757601789611e-01  9.7150836400283713e-02  6.6677175815379658e-02  3.5827688143040506e-02  5.2557160655553863e-03  -2.4555138243934134e-02  -5.3272334243147743e-02  -8.0682332048440691e-02  -1.0665347510474373e-01  -1.3110114176790966e-01  -1.5396022664860703e-01  -1.7516738654084762e-01  -1.9465306024964382e-01  -2.1234157774564069e-01  -2.2815671007521818e-01  -2.4202991906130605e-01  -2.5390894451271923e-01  -2.6376512522391532e-01  -2.7159852790039646e-01  -2.7744059709459029e-01  -2.8135439290817954e-01  -2.8343281191819764e-01  -2.8379530993387059e-01  -2.8258384640094375e-01  -2.7995880248424782e-01  -2.7609568502120929e-01  -2.7118322758805957e-01  -2.6542348008480904e-01  -2.5903372351087256e-01  -2.5225185000856032e-01  -2.4534109976545815e-01  -2.3861120085501494e-01  -2.3240916240915349e-01  -2.2724285540295505e-01  -2.2355140353067540e-01  -2.2260593056853401e-01  -2.2398724545197227e-01  -2.3273019398183067e-01  -2.3637956639054356e-01  -2.6793238441987027e-01  -2.1069343903333540e-01  -3.8865692634764359e-01  -3.5415660704192303e-01  -3.0871809097931635e-01  -2.8965648687551154e-01  -2.5789690945851135e-01  -2.2351931332934880e-01  -1.8505992727857595e-01  -1.4364591972806925e-01  -1.0013581993347645e-01  -5.5615128184736247e-02  -1.1232431985930158e-02  3.1816025065523543e-02  7.2335431348710649e-02  1.0918541159720184e-01  1.4133635872915132e-01  1.6792359624647724e-01  1.8829415216895287e-01  2.0204159084776041e-01  2.0902556444600584e-01  2.0937389809390916e-01  2.0346641539464558e-01  1.9190109024511481e-01  1.7544496657976802e-01  1.5497417173105640e-01  1.3140924549070598e-01  1.0565302011880542e-01  7.8538162206278267e-02  5.0789778535885795e-02  2.3005736116589643e-02  -4.3458474058186997e-03  -3.0915137495813209e-02  -5.6449949925133587e-02  -8.0771154531642436e-02  -1.0374867754000025e-01  -1.2528144322512055e-01  -1.4528306702257121e-01  -1.6367375230783179e-01  -1.8037766009851525e-01  -1.9532439586273262e-01  -2.0845292661299483e-01  -2.1971643408682570e-01  -2.2908686445633220e-01  -2.3655845915819013e-01  -2.4214987096434601e-01  -2.4590490292307646e-01  -2.4789204353523323e-01  -2.4820324055718118e-01  -2.4695233690904170e-01  -2.4427371141374132e-01  -2.4032151661053147e-01  -2.3526986328723765e-01  -2.2931425948494527e-01  -2.2267407026892730e-01  -2.1559795498366463e-01  -2.0836734655962508e-01  -2.0131875671142746e-01  -1.9482516415316031e-01  -1.8943949845944857e-01  -1.8557997881692712e-01  -1.8463209489915328e-01  -1.8567579472102205e-01  -1.9446903240613550e-01  -1.9471584180536833e-01  -2.2714374670853069e-01  -1.5192631027737183e-01  -3.5415660704192303e-01  -3.1479547668442048e-01  -3.2233100175842999e-01  -2.9011576346729095e-01  -2.5699450660385526e-01  -2.2148458304788049e-01  -1.8332939006390428e-01  -1.4321581393547872e-01  -1.0184262488883646e-01  -6.0071710155261381e-02  -1.8836521972495378e-02  2.0885535754101455e-02  5.8119560903456186e-02  9.1938265981170150e-02  1.2150846786890461e-01  1.4613491600087145e-01  1.6529755638832769e-01  1.7867864102281469e-01  1.8617682688148354e-01  1.8790667504427258e-01  1.8418327553085642e-01  1.7549333136692358e-01  1.6245545687343457e-01  1.4577381140519027e-01  1.2618993600610889e-01  1.0443782366850314e-01  8.1206495912633597e-02  5.7113018685591786e-02  3.2687107497856346e-02  8.3667718148569773e-03  -1.5496923783035708e-02  -3.8628724273955577e-02  -6.0814657412501305e-02  -8.1886894783887776e-02  -1.0171016904225652e-01  -1.2017119009080231e-01  -1.3717163834563947e-01  -1.5262465879208303e-01  -1.6645419128901690e-01  -1.7859627928569441e-01  -1.8900137870035766e-01  -1.9763691690703905e-01  -2.0448948414617943e-01  -2.0956639438545055e-01  -2.1289647853125701e-01  -2.1453026047806459e-01  -2.1453967872047675e-01  -2.1301770459618644e-01  -2.1007810715894665e-01  -2.0585573042995012e-01  -2.0050742677424499e-01  -1.9421407187675488e-01  -1.8718328287264691e-01  -1.7965530857830989e-01  -1.7190592157633119e-01  -1.6427122330799954e-01  -1.5712005984313868e-01  -1.5102263477992653e-01  -1.4634256719186384e-01  -1.4458105081145267e-01  -1.4426078683323118e-01  -1.5208450642071331e-01  -1.4774365531356348e-01  -1.8085198607317238e-01  -8.7759467845326275e-02  -3.1479547668442048e-01  -2.7208616144079811e-01  -3.3833258050417470e-01  -2.9328071008460221e-01  -2.5929234360830455e-01  -2.2262575109648666e-01  -1.8455061244746804e-01  -1.4534490424106630e-01  -1.0555280539207489e-01  -6.5852198321782865e-02  -2.7000107089722374e-02  1.0205971209060697e-02  4.4968672294745535e-02  7.6529773932880865e-02  1.0420898247295002e-01  1.2743963218748003e-01  1.4579874538285828e-01  1.5902873115559690e-01  1.6704858578163945e-01  1.6995336986385029e-01  1.6800191833041836e-01  1.6159399241135866e-01  1.5123923780907494e-01  1.3752119938313950e-01  1.2106007333887890e-01  1.0247780851170611e-01  8.2368567035192797e-02  6.1276593469383953e-02  3.9682369004494365e-02  1.7996809299593405e-02  -3.4376692487732893e-03  -2.4340984481924063e-02  -4.4486153875905446e-02  -6.3688937323227876e-02  -8.1797980394427219e-02  -9.8686590203366217e-02  -1.1424673738442040e-01  -1.2838538201355068e-01  -1.4102284324706932e-01  -1.5209270314602702e-01  -1.6154266659753766e-01  -1.6933583999221732e-01  -1.7545202425958439e-01  -1.7988876818980598e-01  -1.8266208790985664e-01  -1.8380688307046181e-01  -1.8337718308870693e-01  -1.8144639706404664e-01  -1.7810778029674534e-01  -1.7347531053400886e-01  -1.6768512634450339e-01  -1.6089787345999104e-01  -1.5330160217143374e-01  -1.4511795816924949e-01  -1.3660447420973368e-01  -1.2808195096084063e-01  -1.1989769700562213e-01  -1.1262228596034438e-01  -1.0654168286952173e-01  -1.0327720805234397e-01  -1.0075217543652684e-01  -1.0681013076270365e-01  -9.7002162581209056e-02  -1.3073760240493992e-01  -2.0036556339617342e-02  -2.7208616144079811e-01  -2.2766995634420850e-01  -3.5532174221290869e-01  -2.9795670222568132e-01  -2.6378580772471655e-01  -2.2623827972676550e-01  -1.8834073238219659e-01  -1.4997287738317333e-01  -1.1158504030591269e-01  -7.3710482340255332e-02  -3.6960233327057751e-02  -1.9809302884734002e-03  3.0580914900093500e-02  6.0113119671195689e-02  8.6069893070523665e-02  1.0800032468916773e-01  1.2557164719757935e-01  1.3858548995596387e-01  1.4698580373802608e-01  1.5085775029892712e-01  1.5041776862370684e-01  1.4599583388840831e-01  1.3801178334837219e-01  1.2694805034725143e-01  1.1332146240095112e-01  9.7656577680330911e-02  8.0462685159545286e-02  6.2215891610028190e-02  4.3347014205949254e-02  2.4235219819323670e-02  5.2067566283452524e-03  -1.3462331292431125e-02  -3.1540832529116374e-02  -4.8835669655699535e-02  -6.5185051234618013e-02  -8.0452339205038984e-02  -9.4521188210254570e-02  -1.0729213708407807e-01  -1.1868060743916332e-01  -1.2861603200439028e-01  -1.3704180248478767e-01  -1.4391567029329486e-01  -1.4921035291209422e-01  -1.5291412597404172e-01  -1.5503134854702177e-01  -1.5558288470733686e-01  -1.5460652449189297e-01  -1.5215748579176044e-01  -1.4830915536896003e-01  -1.4315419459790146e-01  -1.3680614168608976e-01  -1.2940185847068014e-01  -1.2110444927710119e-01  -1.1210968087367572e-01  -1.0264770247636790e-01  -9.3013006167020074e-02  -8.3518679401502968e-02  -7.4722437812353756e-02  -6.6816214328180870e-02  -6.1543232792849976e-02  -5.6206017676305307e-02  -5.9942408098025694e-02  -4.4132856922833009e-02  -7.8562041374924424e-02  4.9133712272146905e-02  -2.2766995634420850e-01  -1.8325375124761895e-01  -3.7261551765566459e-01  -3.0340767682084685e-01  -2.6967974819099633e-01  -2.3147754587622749e-01  -1.9381412886295479e-01  -1.5618708486286104e-01  -1.1899758759445166e-01  -8.2660102709388367e-02  -4.7666918452055007e-02  -1.4540353342920408e-02  1.6197658332942042e-02  4.4054865589013385e-02  6.8595054838070282e-02  8.9460868243812094e-02  1.0639196241808080e-01  1.1923742863840653e-01  1.2796162552718643e-01  1.3264309401203764e-01  1.3346674769179759e-01  1.3071020762306121e-01  1.2472561556055649e-01  1.1591869904793745e-01  1.0472695619815768e-01  9.1598817696853629e-02  7.6975303805673870e-02  6.1275301885015260e-02  4.4885028933186862e-02  2.8151757175966036e-02  1.1381402845531640e-02  -5.1607361694889593e-03  -2.1246997889129239e-02  -3.6683072161875829e-02  -5.1303260173938207e-02  -6.4965961920303031e-02  -7.7549827519229397e-02  -8.8950814341725998e-02  -9.9080163501510790e-02  -1.0786320738545201e-01  -1.1523880190405371e-01  -1.2115920205489272e-01  -1.2559017439834963e-01  -1.2851124320384549e-01  -1.2991596789878335e-01  -1.2981227356642780e-01  -1.2822283911149174e-01  -1.2518564237485277e-01  -1.2075472545069771e-01  -1.1500132824140703e-01  -1.0801545749202100e-01  -9.9908305038634140e-02  -9.0815071514096402e-02  -8.0901501345841911e-02  -7.0365050081850317e-02  -5.9467040491623963e-02  -4.8478591893891719e-02  -3.7934660334259886e-02  -2.7924419302929406e-02  -2.0309630814427458e-02  -1.1778822213691304e-02  -1.2857166487118247e-02  9.1505011412848919e-03  -2.6109689996382992e-02  1.1767892801266053e-01  -1.8325375124761895e-01  -1.4054443600399655e-01  -3.8985191810094638e-01  -3.0919738004637332e-01  -2.7642409586423278e-01  -2.3774581148862661e-01  -2.0037056574877593e-01  -1.6341161845973895e-01  -1.2725910968663967e-01  -9.2233909936544456e-02  -5.8734062726820163e-02  -2.7179728103814468e-02  2.0104020481583021e-03  2.8443882869608448e-02  5.1775990592928665e-02  7.1727900121120375e-02  8.8100797017109073e-02  1.0078525248191378e-01  1.0976540408487730e-01  1.1511778422518290e-01  1.1700507394041160e-01  1.1566543917255873e-01  1.1139849528529951e-01  1.0454916028281028e-01  9.5490788343277844e-02  8.4608889728172196e-02  7.2286579720000146e-02  5.8892570404786120e-02  4.4772188535538979e-02  3.0241516878307857e-02  1.5584455886981059e-02  1.0522438300004146e-03  -1.3135166081025348e-02  -2.6786524843991310e-02  -3.9736119202663893e-02  -5.1840522285446326e-02  -6.2975637039739144e-02  -7.3034242764403332e-02  -8.1924134501719953e-02  -8.9566823544810173e-02  -9.5896721068860533e-02  -1.0086067583569258e-01  -1.0441776893879581e-01  -1.0653926156783231e-01  -1.0720866347721453e-01  -1.0642188802901266e-01  -1.0418753340692834e-01  -1.0052732053496811e-01  -9.5476771943971056e-02  -8.9086222330903270e-02  -8.1422265589500109e-02  -7.2570019495303215e-02  -6.2635813193197235e-02  -5.1753672198633818e-02  -4.0086021801210868e-02  -2.7857364312064044e-02  -1.5293264268393999e-02  -2.8985650259893314e-03  9.3408267074227575e-03  1.9455220947128128e-02  3.1329998701666785e-02  3.3037426311944770e-02  6.1109957651366086e-02  2.4858637209768834e-02  1.8357382191668020e-01  -1.4054443600399655e-01  -1.0118330564649394e-01  -4.0674159140070426e-01  -3.1506595080452543e-01  -2.8361681490640012e-01  -2.4457733088968128e-01  -2.0751484785871482e-01  -1.7114604302776382e-01  -1.3588195679555010e-01  -1.0196894535175351e-01  -6.9730144783592782e-02  -3.9501640055721383e-02  -1.1616408005782746e-02  1.3616319928892942e-02  3.5928174764456415e-02  5.5105969300198551e-02  7.1002584404606342e-02  8.3544028773306980e-02  9.2732404247404282e-02  9.8644751138392883e-02  1.0142802584286431e-01  1.0129074365177934e-01  9.8492061527378258e-02  9.3329241797683524e-02  8.6124500863251241e-02  7.7212216655827656e-02  6.6927324394614685e-02  5.5595535058271514e-02  4.3525746563833269e-02  3.1004779207546084e-02  1.8294318986913888e-02  5.6297856995203158e-03  -6.7792864311813708e-03  -1.8747805852665594e-02  -3.0113066471015852e-02  -4.0732454556595049e-02  -5.0481216986568718e-02  -5.9250479740704277e-02  -6.6945618255327188e-02  -7.3484998388481132e-02  -7.8799057787291904e-02  -8.2829668801898723e-02  -8.5529717152007870e-02  -8.6862844881133647e-02  -8.6803319487015071e-02  -8.5336023629150895e-02  -8.2456575434471921e-02  -7.8171619543482590e-02  -7.2499343200693192e-02  -6.5470319874201571e-02  -5.7128770663813236e-02  -4.7534642005111732e-02  -3.6766111263772161e-02  -2.4925911603685513e-02  -1.2141693819672394e-02  1.3995954976024102e-03  1.5517609897566413e-02  2.9742437685303314e-02  4.4183271850694393e-02  5.6781412175903941e-02  7.1921245058558139e-02  7.6348501587992404e-02  1.1004526246009533e-01  7.2662546258057847e-02  2.4490177173759478e-01  -1.0118330564649394e-01  -6.6682986340773409e-02  -4.2295637408282943e-01  -3.2085179163078897e-01  -2.9093973405943790e-01  -2.5159965792310884e-01  -2.1484968645077412e-01  -1.7899426914145136e-01  -1.4448915358988071e-01  -1.1151983476815537e-01  -8.0349912579953831e-02  -5.1245879127708983e-02  -2.4469034340343674e-02  -2.5860880489879222e-04  2.1181449428278647e-02  3.9693557411679882e-02  5.5174764120321511e-02  6.7581977832420287e-02  7.6933990030186528e-02  8.3310335664443028e-02  8.6847205363226099e-02  8.7730843130543815e-02  8.6189003905549885e-02  8.2481175630909204e-02  7.6888299700721502e-02  6.9702704016797193e-02  6.1218866086164121e-02  5.172