<?xml version="1.0"?>
<VTKFile type="UnstructuredGrid"  version="0.1"  >
<UnstructuredGrid>
<Piece  NumberOfPoints="4225" NumberOfCells="8192">
<Points>
<DataArray  type="Float64"  NumberOfComponents="3"  format="ascii">-1 -1 0  -0.96875 -1 0  -0.9375 -1 0  -0.90625 -1 0  -0.875 -1 0  -0.84375 -1 0  -0.8125 -1 0  -0.78125 -1 0  -0.75 -1 0  -0.71875 -1 0  -0.6875 -1 0  -0.65625 -1 0  -0.625 -1 0  -0.59375 -1 0  -0.5625 -1 0  -0.53125 -1 0  -0.5 -1 0  -0.46875 -1 0  -0.4375 -1 0  -0.40625 -1 0  -0.375 -1 0  -0.34375 -1 0  -0.3125 -1 0  -0.28125 -1 0  -0.25 -1 0  -0.21875 -1 0  -0.1875 -1 0  -0.15625 -1 0  -0.125 -1 0  -0.09375 -1 0  -0.0625 -1 0  -0.03125 -1 0  0 -1 0  0.03125 -1 0  0.0625 -1 0  0.09375 -1 0  0.125 -1 0  0.15625 -1 0  0.1875 -1 0  0.21875 -1 0  0.25 -1 0  0.28125 -1 0  0.3125 -1 0  0.34375 -1 0  0.375 -1 0  0.40625 -1 0  0.4375 -1 0  0.46875 -1 0  0.5 -1 0  0.53125 -1 0  0.5625 -1 0  0.59375 -1 0  0.625 -1 0  0.65625 -1 0  0.6875 -1 0  0.71875 -1 0  0.75 -1 0  0.78125 -1 0  0.8125 -1 0  0.84375 -1 0  0.875 -1 0  0.90625 -1 0  0.9375 -1 0  0.96875 -1 0  1 -1 0  -1 -0.96875 0  -0.96875 -0.96875 0  -0.9375 -0.96875 0  -0.90625 -0.96875 0  -0.875 -0.96875 0  -0.84375 -0.96875 0  -0.8125 -0.96875 0  -0.78125 -0.96875 0  -0.75 -0.96875 0  -0.71875 -0.96875 0  -0.6875 -0.96875 0  -0.65625 -0.96875 0  -0.625 -0.96875 0  -0.59375 -0.96875 0  -0.5625 -0.96875 0  -0.53125 -0.96875 0  -0.5 -0.96875 0  -0.46875 -0.96875 0  -0.4375 -0.96875 0  -0.40625 -0.96875 0  -0.375 -0.96875 0  -0.34375 -0.96875 0  -0.3125 -0.96875 0  -0.28125 -0.96875 0  -0.25 -0.96875 0  -0.21875 -0.96875 0  -0.1875 -0.96875 0  -0.15625 -0.96875 0  -0.125 -0.96875 0  -0.09375 -0.96875 0  -0.0625 -0.96875 0  -0.03125 -0.96875 0  0 -0.96875 0  0.03125 -0.96875 0  0.0625 -0.96875 0  0.09375 -0.96875 0  0.125 -0.96875 0  0.15625 -0.96875 0  0.1875 -0.96875 0  0.21875 -0.96875 0  0.25 -0.96875 0  0.28125 -0.96875 0  0.3125 -0.96875 0  0.34375 -0.96875 0  0.375 -0.96875 0  0.40625 -0.96875 0  0.4375 -0.96875 0  0.46875 -0.96875 0  0.5 -0.96875 0  0.53125 -0.96875 0  0.5625 -0.96875 0  0.59375 -0.96875 0  0.625 -0.96875 0  0.65625 -0.96875 0  0.6875 -0.96875 0  0.71875 -0.96875 0  0.75 -0.96875 0  0.78125 -0.96875 0  0.8125 -0.96875 0  0.84375 -0.96875 0  0.875 -0.96875 0  0.90625 -0.96875 0  0.9375 -0.96875 0  0.96875 -0.96875 0  1 -0.96875 0  -1 -0.9375 0  -0.96875 -0.9375 0  -0.9375 -0.9375 0  -0.90625 -0.9375 0  -0.875 -0.9375 0  -0.84375 -0.9375 0  -0.8125 -0.9375 0  -0.78125 -0.9375 0  -0.75 -0.9375 0  -0.71875 -0.9375 0  -0.6875 -0.9375 0  -0.65625 -0.9375 0  -0.625 -0.9375 0  -0.59375 -0.9375 0  -0.5625 -0.9375 0  -0.53125 -0.9375 0  -0.5 -0.9375 0  -0.46875 -0.9375 0  -0.4375 -0.9375 0  -0.40625 -0.9375 0  -0.375 -0.9375 0  -0.34375 -0.9375 0  -0.3125 -0.9375 0  -0.28125 -0.9375 0  -0.25 -0.9375 0  -0.21875 -0.9375 0  -0.1875 -0.9375 0  -0.15625 -0.9375 0  -0.125 -0.9375 0  -0.09375 -0.9375 0  -0.0625 -0.9375 0  -0.03125 -0.9375 0  0 -0.9375 0  0.03125 -0.9375 0  0.0625 -0.9375 0  0.09375 -0.9375 0  0.125 -0.9375 0  0.15625 -0.9375 0  0.1875 -0.9375 0  0.21875 -0.9375 0  0.25 -0.9375 0  0.28125 -0.9375 0  0.3125 -0.9375 0  0.34375 -0.9375 0  0.375 -0.9375 0  0.40625 -0.9375 0  0.4375 -0.9375 0  0.46875 -0.9375 0  0.5 -0.9375 0  0.53125 -0.9375 0  0.5625 -0.9375 0  0.59375 -0.9375 0  0.625 -0.9375 0  0.65625 -0.9375 0  0.6875 -0.9375 0  0.71875 -0.9375 0  0.75 -0.9375 0  0.78125 -0.9375 0  0.8125 -0.9375 0  0.84375 -0.9375 0  0.875 -0.9375 0  0.90625 -0.9375 0  0.9375 -0.9375 0  0.96875 -0.9375 0  1 -0.9375 0  -1 -0.90625 0  -0.96875 -0.90625 0  -0.9375 -0.90625 0  -0.90625 -0.90625 0  -0.875 -0.90625 0  -0.84375 -0.90625 0  -0.8125 -0.90625 0  -0.78125 -0.90625 0  -0.75 -0.90625 0  -0.71875 -0.90625 0  -0.6875 -0.90625 0  -0.65625 -0.90625 0  -0.625 -0.90625 0  -0.59375 -0.90625 0  -0.5625 -0.90625 0  -0.53125 -0.90625 0  -0.5 -0.90625 0  -0.46875 -0.90625 0  -0.4375 -0.90625 0  -0.40625 -0.90625 0  -0.375 -0.90625 0  -0.34375 -0.90625 0  -0.3125 -0.90625 0  -0.28125 -0.90625 0  -0.25 -0.90625 0  -0.21875 -0.90625 0  -0.1875 -0.90625 0  -0.15625 -0.90625 0  -0.125 -0.90625 0  -0.09375 -0.90625 0  -0.0625 -0.90625 0  -0.03125 -0.90625 0  0 -0.90625 0  0.03125 -0.90625 0  0.0625 -0.90625 0  0.09375 -0.90625 0  0.125 -0.90625 0  0.15625 -0.90625 0  0.1875 -0.90625 0  0.21875 -0.90625 0  0.25 -0.90625 0  0.28125 -0.90625 0  0.3125 -0.90625 0  0.34375 -0.90625 0  0.375 -0.90625 0  0.40625 -0.90625 0  0.4375 -0.90625 0  0.46875 -0.90625 0  0.5 -0.90625 0  0.53125 -0.90625 0  0.5625 -0.90625 0  0.59375 -0.90625 0  0.625 -0.90625 0  0.65625 -0.90625 0  0.6875 -0.90625 0  0.71875 -0.90625 0  0.75 -0.90625 0  0.78125 -0.90625 0  0.8125 -0.90625 0  0.84375 -0.90625 0  0.875 -0.90625 0  0.90625 -0.90625 0  0.9375 -0.90625 0  0.96875 -0.90625 0  1 -0.90625 0  -1 -0.875 0  -0.96875 -0.875 0  -0.9375 -0.875 0  -0.90625 -0.875 0  -0.875 -0.875 0  -0.84375 -0.875 0  -0.8125 -0.875 0  -0.78125 -0.875 0  -0.75 -0.875 0  -0.71875 -0.875 0  -0.6875 -0.875 0  -0.65625 -0.875 0  -0.625 -0.875 0  -0.59375 -0.875 0  -0.5625 -0.875 0  -0.53125 -0.875 0  -0.5 -0.875 0  -0.46875 -0.875 0  -0.4375 -0.875 0  -0.40625 -0.875 0  -0.375 -0.875 0  -0.34375 -0.875 0  -0.3125 -0.875 0  -0.28125 -0.875 0  -0.25 -0.875 0  -0.21875 -0.875 0  -0.1875 -0.875 0  -0.15625 -0.875 0  -0.125 -0.875 0  -0.09375 -0.875 0  -0.0625 -0.875 0  -0.03125 -0.875 0  0 -0.875 0  0.03125 -0.875 0  0.0625 -0.875 0  0.09375 -0.875 0  0.125 -0.875 0  0.15625 -0.875 0  0.1875 -0.875 0  0.21875 -0.875 0  0.25 -0.875 0  0.28125 -0.875 0  0.3125 -0.875 0  0.34375 -0.875 0  0.375 -0.875 0  0.40625 -0.875 0  0.4375 -0.875 0  0.46875 -0.875 0  0.5 -0.875 0  0.53125 -0.875 0  0.5625 -0.875 0  0.59375 -0.875 0  0.625 -0.875 0  0.65625 -0.875 0  0.6875 -0.875 0  0.71875 -0.875 0  0.75 -0.875 0  0.78125 -0.875 0  0.8125 -0.875 0  0.84375 -0.875 0  0.875 -0.875 0  0.90625 -0.875 0  0.9375 -0.875 0  0.96875 -0.875 0  1 -0.875 0  -1 -0.84375 0  -0.96875 -0.84375 0  -0.9375 -0.84375 0  -0.90625 -0.84375 0  -0.875 -0.84375 0  -0.84375 -0.84375 0  -0.8125 -0.84375 0  -0.78125 -0.84375 0  -0.75 -0.84375 0  -0.71875 -0.84375 0  -0.6875 -0.84375 0  -0.65625 -0.84375 0  -0.625 -0.84375 0  -0.59375 -0.84375 0  -0.5625 -0.84375 0  -0.53125 -0.84375 0  -0.5 -0.84375 0  -0.46875 -0.84375 0  -0.4375 -0.84375 0  -0.40625 -0.84375 0  -0.375 -0.84375 0  -0.34375 -0.84375 0  -0.3125 -0.84375 0  -0.28125 -0.84375 0  -0.25 -0.84375 0  -0.21875 -0.84375 0  -0.1875 -0.84375 0  -0.15625 -0.84375 0  -0.125 -0.84375 0  -0.09375 -0.84375 0  -0.0625 -0.84375 0  -0.03125 -0.84375 0  0 -0.84375 0  0.03125 -0.84375 0  0.0625 -0.84375 0  0.09375 -0.84375 0  0.125 -0.84375 0  0.15625 -0.84375 0  0.1875 -0.84375 0  0.21875 -0.84375 0  0.25 -0.84375 0  0.28125 -0.84375 0  0.3125 -0.84375 0  0.34375 -0.84375 0  0.375 -0.84375 0  0.40625 -0.84375 0  0.4375 -0.84375 0  0.46875 -0.84375 0  0.5 -0.84375 0  0.53125 -0.84375 0  0.5625 -0.84375 0  0.59375 -0.84375 0  0.625 -0.84375 0  0.65625 -0.84375 0  0.6875 -0.84375 0  0.71875 -0.84375 0  0.75 -0.84375 0  0.78125 -0.84375 0  0.8125 -0.84375 0  0.84375 -0.84375 0  0.875 -0.84375 0  0.90625 -0.84375 0  0.9375 -0.84375 0  0.96875 -0.84375 0  1 -0.84375 0  -1 -0.8125 0  -0.96875 -0.8125 0  -0.9375 -0.8125 0  -0.90625 -0.8125 0  -0.875 -0.8125 0  -0.84375 -0.8125 0  -0.8125 -0.8125 0  -0.78125 -0.8125 0  -0.75 -0.8125 0  -0.71875 -0.8125 0  -0.6875 -0.8125 0  -0.65625 -0.8125 0  -0.625 -0.8125 0  -0.59375 -0.8125 0  -0.5625 -0.8125 0  -0.53125 -0.8125 0  -0.5 -0.8125 0  -0.46875 -0.8125 0  -0.4375 -0.8125 0  -0.40625 -0.8125 0  -0.375 -0.8125 0  -0.34375 -0.8125 0  -0.3125 -0.8125 0  -0.28125 -0.8125 0  -0.25 -0.8125 0  -0.21875 -0.8125 0  -0.1875 -0.8125 0  -0.15625 -0.8125 0  -0.125 -0.8125 0  -0.09375 -0.8125 0  -0.0625 -0.8125 0  -0.03125 -0.8125 0  0 -0.8125 0  0.03125 -0.8125 0  0.0625 -0.8125 0  0.09375 -0.8125 0  0.125 -0.8125 0  0.15625 -0.8125 0  0.1875 -0.8125 0  0.21875 -0.8125 0  0.25 -0.8125 0  0.28125 -0.8125 0  0.3125 -0.8125 0  0.34375 -0.8125 0  0.375 -0.8125 0  0.40625 -0.8125 0  0.4375 -0.8125 0  0.46875 -0.8125 0  0.5 -0.8125 0  0.53125 -0.8125 0  0.5625 -0.8125 0  0.59375 -0.8125 0  0.625 -0.8125 0  0.65625 -0.8125 0  0.6875 -0.8125 0  0.71875 -0.8125 0  0.75 -0.8125 0  0.78125 -0.8125 0  0.8125 -0.8125 0  0.84375 -0.8125 0  0.875 -0.8125 0  0.90625 -0.8125 0  0.9375 -0.8125 0  0.96875 -0.8125 0  1 -0.8125 0  -1 -0.78125 0  -0.96875 -0.78125 0  -0.9375 -0.78125 0  -0.90625 -0.78125 0  -0.875 -0.78125 0  -0.84375 -0.78125 0  -0.8125 -0.78125 0  -0.78125 -0.78125 0  -0.75 -0.78125 0  -0.71875 -0.78125 0  -0.6875 -0.78125 0  -0.65625 -0.78125 0  -0.625 -0.78125 0  -0.59375 -0.78125 0  -0.5625 -0.78125 0  -0.53125 -0.78125 0  -0.5 -0.78125 0  -0.46875 -0.78125 0  -0.4375 -0.78125 0  -0.40625 -0.78125 0  -0.375 -0.78125 0  -0.34375 -0.78125 0  -0.3125 -0.78125 0  -0.28125 -0.78125 0  -0.25 -0.78125 0  -0.21875 -0.78125 0  -0.1875 -0.78125 0  -0.15625 -0.78125 0  -0.125 -0.78125 0  -0.09375 -0.78125 0  -0.0625 -0.78125 0  -0.03125 -0.78125 0  0 -0.78125 0  0.03125 -0.78125 0  0.0625 -0.78125 0  0.09375 -0.78125 0  0.125 -0.78125 0  0.15625 -0.78125 0  0.1875 -0.78125 0  0.21875 -0.78125 0  0.25 -0.78125 0  0.28125 -0.78125 0  0.3125 -0.78125 0  0.34375 -0.78125 0  0.375 -0.78125 0  0.40625 -0.78125 0  0.4375 -0.78125 0  0.46875 -0.78125 0  0.5 -0.78125 0  0.53125 -0.78125 0  0.5625 -0.78125 0  0.59375 -0.78125 0  0.625 -0.78125 0  0.65625 -0.78125 0  0.6875 -0.78125 0  0.71875 -0.78125 0  0.75 -0.78125 0  0.78125 -0.78125 0  0.8125 -0.78125 0  0.84375 -0.78125 0  0.875 -0.78125 0  0.90625 -0.78125 0  0.9375 -0.78125 0  0.96875 -0.78125 0  1 -0.78125 0  -1 -0.75 0  -0.96875 -0.75 0  -0.9375 -0.75 0  -0.90625 -0.75 0  -0.875 -0.75 0  -0.84375 -0.75 0  -0.8125 -0.75 0  -0.78125 -0.75 0  -0.75 -0.75 0  -0.71875 -0.75 0  -0.6875 -0.75 0  -0.65625 -0.75 0  -0.625 -0.75 0  -0.59375 -0.75 0  -0.5625 -0.75 0  -0.53125 -0.75 0  -0.5 -0.75 0  -0.46875 -0.75 0  -0.4375 -0.75 0  -0.40625 -0.75
[...]
<PointData  Scalars="f_15"> 
<DataArray  type="Float64"  Name="f_15"  format="ascii">-4.9724408918588942e-01  -4.9246688631346042e-01  -4.7831886292347470e-01  -4.5534371962050663e-01  -4.2442437827708007e-01  -3.8674905184125674e-01  -3.4376558197939922e-01  -2.9712579933289052e-01  -2.4862204459294460e-01  -2.0011828985299882e-01  -1.5347850720649006e-01  -1.1049503734463249e-01  -7.2819710908809246e-02  -4.1900369565382803e-02  -1.8925226262414642e-02  -4.7772028724289714e-03  0.0000000000000000e+00  -4.7772028724289714e-03  -1.8925226262414670e-02  -4.1900369565382831e-02  -7.2819710908809301e-02  -1.1049503734463254e-01  -1.5347850720649023e-01  -2.0011828985299893e-01  -2.4862204459294471e-01  -2.9712579933289052e-01  -3.4376558197939916e-01  -3.8674905184125691e-01  -4.2442437827708007e-01  -4.5534371962050663e-01  -4.7831886292347481e-01  -4.9246688631346042e-01  -4.9724408918588942e-01  -4.9246688631346042e-01  -4.7831886292347481e-01  -4.5534371962050663e-01  -4.2442437827708007e-01  -3.8674905184125691e-01  -3.4376558197939916e-01  -2.9712579933289052e-01  -2.4862204459294471e-01  -2.0011828985299893e-01  -1.5347850720649023e-01  -1.1049503734463254e-01  -7.2819710908809301e-02  -4.1900369565382831e-02  -1.8925226262414670e-02  -4.7772028724289714e-03  0.0000000000000000e+00  -4.7772028724289714e-03  -1.8925226262414642e-02  -4.1900369565382803e-02  -7.2819710908809246e-02  -1.1049503734463249e-01  -1.5347850720649006e-01  -2.0011828985299882e-01  -2.4862204459294460e-01  -2.9712579933289052e-01  -3.4376558197939922e-01  -3.8674905184125674e-01  -4.2442437827708007e-01  -4.5534371962050663e-01  -4.7831886292347470e-01  -4.9246688631346042e-01  -4.9724408918588942e-01  -4.9246688631346042e-01  -4.4126883488547475e-01  -3.0340497697862284e-01  -1.5965021860281811e-01  -1.0677131517170150e-02  1.4018588717374958e-01  2.9031963192552201e-01  4.3718108637474029e-01  5.7819936880744949e-01  7.1078432416843196e-01  8.3238821329262813e-01  9.4058537184593904e-01  1.0331555566812285e+00  1.1081635065723063e+00  1.1640300972494495e+00  1.1995914438695130e+00  1.2141434841316570e+00  1.2074699425922977e+00  1.1798527395672487e+00  1.1320642854093506e+00  1.0653422880084373e+00  9.8134805812281345e-01  8.8211038519077800e-01  7.6995727788137747e-01  6.4743868252638204e-01  5.1724327702362427e-01  3.8211290817764276e-01  2.4475798894911238e-01  1.0777722079316006e-01  -2.6415426922739318e-02  -1.5565384847998950e-01  -2.7807096332400028e-01  -3.9213640036668918e-01  -4.9667975398980596e-01  -5.9089918396199237e-01  -6.7435560872249123e-01  -7.4695349485553020e-01  -8.0890953746827798e-01  -8.6071120398264078e-01  -9.0306716150269628e-01  -9.3685212395018169e-01  -9.6304841965372512e-01  -9.8268690900146205e-01  -9.9678942302978668e-01  -1.0063150313641271e+00  -1.0121118438647154e+00  -1.0148761060678422e+00  -1.0151196861650420e+00  -1.0131471085559636e+00  -1.0090426471611205e+00  -1.0026681187438735e+00  -9.9367146857541422e-01  -9.8150644530764586e-01  -9.6546326613041289e-01  -9.4471060477384261e-01  -9.1834922630790283e-01  -8.8547874277372407e-01  -8.4528009820505634e-01  -7.9712346824141600e-01  -7.4076182922015388e-01  -6.7663651014733239e-01  -6.0274642548387125e-01  -5.4336298708026243e-01  -4.3289625008346905e-01  -4.9246688631346042e-01  -4.7831886292347470e-01  -5.1406551457354299e-01  -3.8012807779555813e-01  -2.7314041024609031e-01  -1.6093891073186056e-01  -4.8088718192703821e-02  6.3742679932260418e-02  1.7279375613077416e-01  2.7724577892885355e-01  3.7525354352058993e-01  4.6500095904402261e-01  5.4476333248676923e-01  6.1296949717193727e-01  6.6825975551981998e-01  7.0953654653034592e-01  7.3600592435269974e-01  7.4720812069217180e-01  7.4303643864530500e-01  7.2374371628904721e-01  6.8993651781626164e-01  6.4255717775590493e-01  5.8285471140369971e-01  5.1234554425033418e-01  4.3276577032359176e-01  3.4601654257746051e-01  2.5410480786021750e-01  1.5908141438603324e-01  6.2978970698003969e-02  -3.2248382006097073e-02  -1.2478105252852972e-01  -2.1298398429730594e-01  -2.9544879128820067e-01  -3.7102659155493878e-01  -4.3885052233569871e-01  -4.9834722017346500e-01  -5.4923713013104736e-01  -5.9152373912617606e-01  -6.2547249864546683e-01  -6.5158031399907934e-01  -6.7053712904456764e-01  -6.8318108069192185e-01  -6.9044929840299618e-01  -6.9332619478666058e-01  -6.9279154605259430e-01  -6.8977028231072479e-01  -6.8508623191068918e-01  -6.7942152943793188e-01  -6.7328359402787452e-01  -6.6698092498474215e-01  -6.6060910102080517e-01  -6.5404765242078089e-01  -6.4696858351307329e-01  -6.3885668761597736e-01  -6.2904206124591555e-01  -6.1674489600634430e-01  -6.0113345498983184e-01  -5.8139674168633693e-01  -5.5683560829398981e-01  -5.2698268037924556e-01  -4.9181555052078557e-01  -4.5205650173178630e-01  -4.0534033560356314e-01  -3.8352575656811888e-01  -2.7151731510334765e-01  -4.7831886292347470e-01  -4.5534371962050663e-01  -5.8659477883893452e-01  -4.2026092348438587e-01  -3.1350973374543384e-01  -1.9881279090688522e-01  -8.6030375430289602e-02  2.4301976288985522e-02  1.3091983631986548e-01  2.3238750303638639e-01  3.2720107780807056e-01  4.1385371010013045e-01  4.9089784751717253e-01  5.5700429172350341e-01  6.1101621887733248e-01  6.5199636552322604e-01  6.7926575233351927e-01  6.9243276500361572e-01  6.9141162131572154e-01  6.7642978244486973e-01  6.4802414207298864e-01  6.0702635243883996e-01  5.5453794304680037e-01  4.9189637315464663e-01  4.2063338972018699e-01  3.4242743370364603e-01  2.5905193181810865e-01  1.7232153165216110e-01  8.4038296199677981e-02  -4.0601249865105651e-03  -9.0348480514618704e-02  -1.7335636843869931e-01  -2.5180371886336700e-01  -3.2462818879748812e-01  -3.9100365514281410e-01  -4.5034938499364841e-01  -5.0232978782675008e-01  -5.4684506225605634e-01  -5.8401332225673863e-01  -6.1414518184763822e-01  -6.3771195195607688e-01  -6.5530892736330315e-01  -6.6761528019856387e-01  -6.7535230803750212e-01  -6.7924170499558090e-01  -6.7996561188760574e-01  -6.7813000939426549e-01  -6.7423301912009437e-01  -6.6863937679607000e-01  -6.6156228667541339e-01  -6.5305350252206551e-01  -6.4300243143836977e-01  -6.3114473212658562e-01  -6.1708088295077490e-01  -6.0030505099655385e-01  -5.8024487833917582e-01  -5.5631310547292401e-01  -5.2797290007289854e-01  -4.9481953564016512e-01  -4.5668667712778793e-01  -4.1384219599477551e-01  -3.6722087470366072e-01  -3.1340856808899259e-01  -2.9145225096487093e-01  -1.3952179440094212e-01  -4.5534371962050663e-01  -4.2442437827708007e-01  -6.5668349438027274e-01  -4.6335781455852743e-01  -3.6433431947836387e-01  -2.5382081776479853e-01  -1.4753717301426580e-01  -4.4747113437664431e-02  5.3729499109432172e-02  1.4684095906326730e-01  2.3344460159391808e-01  3.1237045297807065e-01  3.8248196861478789e-01  4.4273049424210803e-01  4.9220320181425886e-01  5.3016404540488493e-01  5.5608695219871085e-01  5.6968061488178268e-01  5.7090429355215844e-01  5.5997440920330621e-01  5.3736185028801531e-01  5.0378038636995626e-01  4.6016670798366649e-01  4.0765306140925206e-01  3.4753355561176019e-01  2.8122556216182498e-01  2.1022766841118878e-01  1.3607584203995593e-01  6.0299413666381425e-02  -1.5621457395195198e-02  -9.0295340164546350e-02  -1.6245469928825859e-01  -2.3098549757461279e-01  -2.9495027284568592e-01  -3.5360400353419669e-01  -4.0640238141980306e-01  -4.5300236917563297e-01  -4.9325527397541868e-01  -5.2719278669054470e-01  -5.5500675965373369e-01  -5.7702365578143366e-01  -5.9367485977255263e-01  -6.0546410993420519e-01  -6.1293347425907885e-01  -6.1662925296361393e-01  -6.1706927952165103e-01  -6.1471293666888072e-01  -6.0993519749354241e-01  -6.0300579639682583e-01  -5.9407455373207096e-01  -5.8316364441825019e-01  -5.7016749944870648e-01  -5.5486081901262674e-01  -5.3691516129918304e-01  -5.1592445212613680e-01  -4.9143993479987547e-01  -4.6301524703370639e-01  -4.3026267538503282e-01  -3.9292139917222607e-01  -3.5094210111751706e-01  -3.0465187290308937e-01  -2.5490458327401994e-01  -1.9698855625821068e-01  -1.7706373758655236e-01  1.0845963828670521e-02  -4.2442437827708007e-01  -3.8674905184125674e-01  -7.2071102174428359e-01  -5.0287355831273339e-01  -4.1163811908555364e-01  -3.0432996371900367e-01  -2.0303164568701157e-01  -1.0596095089010282e-01  -1.3633262286173519e-02  7.3188394147682315e-02  1.5364191906170405e-01  2.2682087047575886e-01  2.9183207457774218e-01  3.4784580757871819e-01  3.9413883412842016e-01  4.3013049041050672e-01  4.5541176074300749e-01  4.6976688886520968e-01  4.7318735894600950e-01  4.6587797646269952e-01  4.4825525155365675e-01  4.2093822209187931e-01  3.8473237970938162e-01  3.4060731615465178e-01  2.8966916776262780e-01  2.3312886220874382e-01  1.7226751814744740e-01  1.0840024079336896e-01  4.2839754208050411e-02  -2.3138863284915438e-02  -8.8331020050352399e-02  -1.5163191490791333e-01  -2.1206129899462728e-01  -2.6878290508132241e-01  -3.2111798276716769e-01  -3.6855257166576938e-01  -4.1073847120034079e-01  -4.4748799867315575e-01  -4.7876298742151518e-01  -5.0465855086803424e-01  -5.2538248683001731e-01  -5.4123117504627261e-01  -5.5256312195509560e-01  -5.5977119753584070e-01  -5.6325485257469821e-01  -5.6339337914310061e-01  -5.6052145806019504e-01  -5.5490794788029663e-01  -5.4673898329927817e-01  -5.3610610714392892e-01  -5.2300023922679562e-01  -5.0731194282463954e-01  -4.8883854077839817e-01  -4.6729830782943360e-01  -4.4235213164936765e-01  -4.1363279863514441e-01  -3.8078229401222807e-01  -3.4349714053596742e-01  -3.0158090751096694e-01  -2.5500549400681383e-01  -2.0404831527145884e-01  -1.4938628307775806e-01  -8.5049959547837020e-02  -6.4289226954699130e-02  1.6049408123788833e-01  -3.8674905184125674e-01  -3.4376558197939922e-01  -7.7727104289446325e-01  -5.3741222375137665e-01  -4.5473148724166862e-01  -3.5091020853715321e-01  -2.5438588821026198e-01  -1.6250753172241361e-01  -7.5602985881957699e-02  5.7665863803102388e-03  8.0950801145305312e-02  1.4924928413247188e-01  2.0996292891096241e-01  2.6243871439647981e-01  3.0610753069595525e-01  3.4051572936192787e-01  3.6535028746903958e-01  3.8045761367992720e-01  3.8585571322953949e-01  3.8173980515241712e-01  3.6848133886318768e-01  3.4662082719877157e-01  3.1685479708522846e-01  2.8001762106666073e-01  2.3705888909891212e-01  1.8901736983713538e-01  1.3699247800527642e-01  8.2114439650453105e-02  2.5514194358575611e-02  -3.1705796092922685e-02  -8.8498836797956518e-02  -1.4389840623522382e-01  -1.9703887248115154e-01  -2.4717186315238299e-01  -2.9367778642130082e-01  -3.3607225186635631e-01  -3.7400725317616584e-01  -4.0726729554141977e-01  -4.3576069604438733e-01  -4.5950663052230706e-01  -4.7861846868268371e-01  -4.9328427961144961e-01  -5.0374526267934505e-01  -5.1027316091531438e-01  -5.1314750534780329e-01  -5.1263379131796372e-01  -5.0896339426583137e-01  -5.0231623872228170e-01  -4.9280687726975864e-01  -4.8047481506990003e-01  -4.6527951589808436e-01  -4.4710068707008610e-01  -4.2574404549119355e-01  -4.0095293501383550e-01  -3.7242577889481815e-01  -3.3983952403825601e-01  -3.0287879729435174e-01  -2.6127034547956707e-01  -2.1482056931356219e-01  -1.6345697054477024e-01  -1.0734718406362267e-01  -4.6961180701795183e-02  2.4837923986181717e-02  4.7934373519489828e-02  3.0934975405338694e-01  -3.4376558197939922e-01  -2.9712579933289052e-01  -8.2601022440476268e-01  -5.6647757682125777e-01  -4.9298626285495795e-01  -3.9299957996634993e-01  -3.0117972716959257e-01  -2.1414476749218422e-01  -1.3212786424344120e-01  -5.5563298719137254e-02  1.5048474051755025e-02  7.9161244440196357e-02  1.3622581165218298e-01  1.8572823520229950e-01  2.2722222157046876e-01  2.6035601708412393e-01  2.8489393045529599e-01  3.0073237483962401e-01  3.0791037755080691e-01  3.0661453161124796e-01  2.9717850253630096e-01  2.8007731249172862e-01  2.5591679173673898e-01  2.2541870855812235e-01  1.8940223775807125e-01  1.4876252244652977e-01  1.0444718295054393e-01  5.7431668635461071e-02  8.6943764335007459e-03  -4.0807553918912054e-02  -9.0160906056293913e-02  -1.3851672823577243e-01  -1.8510767173160722e-01  -2.2926177129930139e-01  -2.7041226760028397e-01  -3.0810322279527097e-01  -3.4199085433557125e-01  -3.7184066500079999e-01  -3.9752062460101145e-01  -4.1899077978152471e-01  -4.3628983050788706e-01  -4.4951928144864572e-01  -4.5882590282727465e-01  -4.6438324874622511e-01  -4.6637305076926566e-01  -4.6496726320835519e-01  -4.6031156209442731e-01  -4.5251098415317514e-01  -4.4161839950618659e-01  -4.2762633603762479e-01  -4.1046266361727579e-01  -3.8999044544767181e-01  -3.6601222930926064e-01  -3.3827885187322032e-01  -3.0650276801465459e-01  -2.7037566585806194e-01  -2.2958998297852465e-01  -1.8386332212211182e-01  -1.3296328659946621e-01  -7.6733624203334197e-02  -1.5203221086163373e-02  5.1369793425718846e-02  1.3119708423821055e-01  1.5769045503564902e-01  4.5480590031994078e-01  -2.9712579933289052e-01  -2.4862204459294460e-01  -8.6717888644075858e-01  -5.9017565461577814e-01  -5.2624446937476499e-01  -4.3037815995215145e-01  -3.4322893914497982e-01  -2.6078269868074022e-01  -1.8324387439621154e-01  -1.1097821147468892e-01  -4.4387101284182447e-02  1.6093522007195538e-02  7.0026542315804949e-02  1.1700489472517807e-01  1.5667821918657407e-01  1.8877515709958304e-01  2.1312128553218890e-01  2.2965250729169168e-01  2.3842390630306895e-01  2.3961395815612774e-01  2.3352428027289365e-01  2.2057500668210991e-01  2.0129620566934814e-01  1.7631566688966732e-01  1.4634369056442226e-01  1.1215540907035632e-01  7.4571422904933293e-02  3.4437416017446550e-02  -7.3964250934269553e-03  -5.0095498048290464e-02  -9.2859619101560917e-02  -1.3493998522589898e-01  -1.7565368515262089e-01  -2.1439530275447727e-01  -2.5064528307753453e-01  -2.8397482899041809e-01  -3.1404729016937144e-01  -3.4061606394934441e-01  -3.6351924815246051e-01  -3.8267131034069457e-01  -3.9805224926037031e-01  -4.0969470065558694e-01  -4.1766963031186488e-01  -4.2207117725656829e-01  -4.2300136865495119e-01  -4.2055528713667301e-01  -4.1480738684064622e-01  -4.0579949033108059e-01  -3.9353104046168430e-01  -3.7795200677735380e-01  -3.5895884708735720e-01  -3.3639372721244210e-01  -3.1004718461725023e-01  -2.7966417974769520e-01  -2.4495344094932359e-01  -2.0559971685369888e-01  -1.6127838475218942e-01  -1.1167128776482940e-01  -5.6481256911737832e-02  4.5531452132224100e-03  7.1553866781275122e-02  1.4447134337323198e-01  2.3249759051449043e-01  2.6309232429116503e-01  5.9427635458849593e-01  -2.4862204459294460e-01  -2.0011828985299882e-01  -9.0137593855048825e-01  -6.0898783442077831e-01  -5.5469861646090535e-01  -4.6312678165273347e-01  -3.8059040519744364e-01  -3.0251658184188562e-01  -2.2912396903457613e-01  -1.6075145317658823e-01  -9.7740239325285888e-02  -4.0450907403525790e-02  1.0760768655063766e-02  5.5568043623346448e-02  9.3694200595676444e-02  1.2493037858803939e-01  1.4914998709523611e-01  1.6631959451663036e-01  1.7650608439719168e-01  1.7988012017008664e-01  1.7671587304382808e-01  1.6738725150624997e-01  1.5236078890636881e-01  1.3218562100857553e-01  1.0748089963577935e-01  7.8921236697839750e-02  4.7220671559222709e-02  1.3115835818920941e-02  -2.2651126126583748e-02  -5.9349207104386459e-02  -9.6274214688062396e-02  -1.3276291092947576e-01  -1.6820516254836665e-01  -2.0205371390268353e-01  -2.3383129111494674e-01  -2.6313487846279054e-01  -2.8963707077708523e-01  -3.1308458137073086e-01  -3.3329401822535260e-01  -3.5014522397886788e-01  -3.6357246977175534e-01  -3.7355397077243441e-01  -3.8010013789547814e-01  -3.8324113873063220e-01  -3.8301422614335251e-01  -3.7945143646441803e-01  -3.7256809962456405e-01  -3.6235269170632617e-01  -3.4875838951227217e-01  -3.3169672403522021e-01  -3.1103354194056454e-01  -2.8658748768120007e-01  -2.5813099231326747e-01  -2.2539374984671817e-01  -1.8806838349958066e-01  -1.4581793637464141e-01  -9.8284492812938107e-02  -4.5097879503823192e-02  1.4118040472913023e-02  7.9739182741562067e-02  1.5204047662302295e-01  2.3117368103395003e-01  3.2720795467649127e-01  3.6228032306389374e-01  7.2518597878911706e-01  -2.0011828985299882e-01  -1.5347850720649006e-01  -9.2939152581430939e-01  -6.2361883026308695e-01  -5.7876578655780997e-01  -4.9152539583995480e-01  -4.1348060689223370e-01  -3.3955799845410245e-01  -2.7001536496413758e-01  -2.0519188222492168e-01  -1.4539610215920395e-01  -9.0939303614649594e-02  -4.2119659228821119e-02  7.9546132840222525e-04  3.7585177091405790e-02  6.8088657915639339e-02  9.2216282125245547e-02  1.0995807530902606e-01  1.2138929296372492e-01  1.2667301386834842e-01  1.2605979194422046e-01  1.1988441165909723e-01  1.0855998000149239e-01  9.2569579152130960e-02  7.2455873245011071e-02  4.8809033118943392e-02  2.2253487084590330e-02  -6.5660503389672192e-03  -3.6998720862275042e-02  -6.8401368343852215e-02  -1.0015157414338070e-01  -1.3165945922581393e-01  -1.6237785403194216e-01  -1.9181052148381117e-01  -2.1951819653683441e-01  -2.4512228240741085e-01  -2.6830615556228077e-01  -2.8881409184592050e-01  -3.0644795258756224e-01  -3.2106180786876420e-01  -3.3255479730197923e-01  -3.4086252848479281e-01  -3.4594743142459844e-01  -3.4778843891884709e-01  -3.4637046614810402e-01  -3.4167406513253867e-01  -3.3366570759598618e-01  -3.2228902494673639e-01  -3.0745736655442851e-01  -2.8904789294667460e-01  -2.6689741942040957e-01  -2.4080005535840257e-01  -2.1050665759786580e-01  -1.7572590667387183e-01  -1.3612675892442008e-01  -9.1341780513992180e-02  -4.0970753797736820e-02  1.5416491913482820e-02  7.8280305851627041e-02  1.4811171328952394e-01  2.2533370430302666e-01  3.1028844530257826e-01  4.1380553137839443e-01  4.5342749985038439e-01  8.4500149570074090e-01  -1.5347850720649006e-01  -1.1049503734463249e-01  -9.5209569552535023e-01  -6.3488334682558334e-01  -5.9898799839787420e-01  -5.1597335104511866e-01  -4.4221673370554065e-01  -3.7219378653570145e-01  -3.0621269873351187e-01  -2.4462807451365781e-01  -1.8773344155959040e-01  -1.3580874150490715e-01  -8.9111722883422798e-02  -4.7866034678833658e-02  -1.2250336101293094e-02  1.7611405555756049e-02  4.1658048663767204e-02  5.9897490800558111e-02  7.2410728517961903e-02  7.9353625495428140e-02  8.0956346390875525e-02  7.7520501218670518e-02  6.9414127449342861e-02  5.7064717338472598e-02  4.0950555281990847e-02  2.1590703847476612e-02  -4.6600062171755797e-04  -2.4652526095006077e-02  -5.0395399492433400e-02  -7.7126204282019037e-02  -1.0429243935912609e-01  -1.3136736219719372e-01  -1.5785850432128748e-01  -1.8331458647073426e-01  -2.0733063900680831e-01  -2.2955119250431227e-01  -2.4967148838092887e-01  -2.6743672304611510e-01  -2.8263942140191278e-01  -2.9511509552766363e-01  -3.0473640516366712e-01  -3.1140609101385014e-01  -3.1504897914178420e-01  -3.1560339686768130e-01  -3.1301232712632526e-01  -3.0721465449495117e-01  -2.9813680797928305e-01  -2.8568510201539965e-01  -2.6973900330460121e-01  -2.5014551736565255e-01  -2.2671479368929079e-01  -1.9921698116554332e-01  -1.6738024683611977e-01  -1.3088978027680392e-01  -8.9387448946804102e-02  -4.2471661500984970e-02  1.0303189733562795e-02  6.9428646748606354e-02  1.3544761605597413e-01  2.0896012855360374e-01  2.9052662909106469e-01  3.8066457718614455e-01  4.9083209004080341e-01  5.3479452881856182e-01  9.5131140642306455e-01  -1.1049503734463249e-01  -7.2819710908809246e-02  -9.7035302198807383e-01  -6.4361703134410286e-01  -6.1595289562292121e-01  -5.3692334758568305e-01  -4.6716541971283215e-01  -4.0074870957472691e-01  -3.3803265794425374e-01  -2.7939291780138664e-01  -2.2511731895722209e-01  -1.7546541531408791e-01  -1.3066588644744218e-01  -9.0909534090200056e-02  -5.6342567580654555e-02  -2.7060276371772028e-02  -3.1015774061343084e-03  1.5555206955435590e-02  2.8995023894278226e-02  3.7367074798477264e-02  4.0883991394953467e-02  3.9819237462183049e-02  3.4502782243310305e-02  2.5315219237165548e-02  1.2680517488083860e-02  -2.9423199605884635e-03  -2.1068403023147352e-02  -4.1196579308719943e