<?xml version="1.0"?>
<VTKFile type="UnstructuredGrid"  version="0.1"  >
<UnstructuredGrid>
<Piece  NumberOfPoints="4225" NumberOfCells="8192">
<Points>
<DataArray  type="Float64"  NumberOfComponents="3"  format="ascii">-1 -1 0  -0.96875 -1 0  -0.9375 -1 0  -0.90625 -1 0  -0.875 -1 0  -0.84375 -1 0  -0.8125 -1 0  -0.78125 -1 0  -0.75 -1 0  -0.71875 -1 0  -0.6875 -1 0  -0.65625 -1 0  -0.625 -1 0  -0.59375 -1 0  -0.5625 -1 0  -0.53125 -1 0  -0.5 -1 0  -0.46875 -1 0  -0.4375 -1 0  -0.40625 -1 0  -0.375 -1 0  -0.34375 -1 0  -0.3125 -1 0  -0.28125 -1 0  -0.25 -1 0  -0.21875 -1 0  -0.1875 -1 0  -0.15625 -1 0  -0.125 -1 0  -0.09375 -1 0  -0.0625 -1 0  -0.03125 -1 0  0 -1 0  0.03125 -1 0  0.0625 -1 0  0.09375 -1 0  0.125 -1 0  0.15625 -1 0  0.1875 -1 0  0.21875 -1 0  0.25 -1 0  0.28125 -1 0  0.3125 -1 0  0.34375 -1 0  0.375 -1 0  0.40625 -1 0  0.4375 -1 0  0.46875 -1 0  0.5 -1 0  0.53125 -1 0  0.5625 -1 0  0.59375 -1 0  0.625 -1 0  0.65625 -1 0  0.6875 -1 0  0.71875 -1 0  0.75 -1 0  0.78125 -1 0  0.8125 -1 0  0.84375 -1 0  0.875 -1 0  0.90625 -1 0  0.9375 -1 0  0.96875 -1 0  1 -1 0  -1 -0.96875 0  -0.96875 -0.96875 0  -0.9375 -0.96875 0  -0.90625 -0.96875 0  -0.875 -0.96875 0  -0.84375 -0.96875 0  -0.8125 -0.96875 0  -0.78125 -0.96875 0  -0.75 -0.96875 0  -0.71875 -0.96875 0  -0.6875 -0.96875 0  -0.65625 -0.96875 0  -0.625 -0.96875 0  -0.59375 -0.96875 0  -0.5625 -0.96875 0  -0.53125 -0.96875 0  -0.5 -0.96875 0  -0.46875 -0.96875 0  -0.4375 -0.96875 0  -0.40625 -0.96875 0  -0.375 -0.96875 0  -0.34375 -0.96875 0  -0.3125 -0.96875 0  -0.28125 -0.96875 0  -0.25 -0.96875 0  -0.21875 -0.96875 0  -0.1875 -0.96875 0  -0.15625 -0.96875 0  -0.125 -0.96875 0  -0.09375 -0.96875 0  -0.0625 -0.96875 0  -0.03125 -0.96875 0  0 -0.96875 0  0.03125 -0.96875 0  0.0625 -0.96875 0  0.09375 -0.96875 0  0.125 -0.96875 0  0.15625 -0.96875 0  0.1875 -0.96875 0  0.21875 -0.96875 0  0.25 -0.96875 0  0.28125 -0.96875 0  0.3125 -0.96875 0  0.34375 -0.96875 0  0.375 -0.96875 0  0.40625 -0.96875 0  0.4375 -0.96875 0  0.46875 -0.96875 0  0.5 -0.96875 0  0.53125 -0.96875 0  0.5625 -0.96875 0  0.59375 -0.96875 0  0.625 -0.96875 0  0.65625 -0.96875 0  0.6875 -0.96875 0  0.71875 -0.96875 0  0.75 -0.96875 0  0.78125 -0.96875 0  0.8125 -0.96875 0  0.84375 -0.96875 0  0.875 -0.96875 0  0.90625 -0.96875 0  0.9375 -0.96875 0  0.96875 -0.96875 0  1 -0.96875 0  -1 -0.9375 0  -0.96875 -0.9375 0  -0.9375 -0.9375 0  -0.90625 -0.9375 0  -0.875 -0.9375 0  -0.84375 -0.9375 0  -0.8125 -0.9375 0  -0.78125 -0.9375 0  -0.75 -0.9375 0  -0.71875 -0.9375 0  -0.6875 -0.9375 0  -0.65625 -0.9375 0  -0.625 -0.9375 0  -0.59375 -0.9375 0  -0.5625 -0.9375 0  -0.53125 -0.9375 0  -0.5 -0.9375 0  -0.46875 -0.9375 0  -0.4375 -0.9375 0  -0.40625 -0.9375 0  -0.375 -0.9375 0  -0.34375 -0.9375 0  -0.3125 -0.9375 0  -0.28125 -0.9375 0  -0.25 -0.9375 0  -0.21875 -0.9375 0  -0.1875 -0.9375 0  -0.15625 -0.9375 0  -0.125 -0.9375 0  -0.09375 -0.9375 0  -0.0625 -0.9375 0  -0.03125 -0.9375 0  0 -0.9375 0  0.03125 -0.9375 0  0.0625 -0.9375 0  0.09375 -0.9375 0  0.125 -0.9375 0  0.15625 -0.9375 0  0.1875 -0.9375 0  0.21875 -0.9375 0  0.25 -0.9375 0  0.28125 -0.9375 0  0.3125 -0.9375 0  0.34375 -0.9375 0  0.375 -0.9375 0  0.40625 -0.9375 0  0.4375 -0.9375 0  0.46875 -0.9375 0  0.5 -0.9375 0  0.53125 -0.9375 0  0.5625 -0.9375 0  0.59375 -0.9375 0  0.625 -0.9375 0  0.65625 -0.9375 0  0.6875 -0.9375 0  0.71875 -0.9375 0  0.75 -0.9375 0  0.78125 -0.9375 0  0.8125 -0.9375 0  0.84375 -0.9375 0  0.875 -0.9375 0  0.90625 -0.9375 0  0.9375 -0.9375 0  0.96875 -0.9375 0  1 -0.9375 0  -1 -0.90625 0  -0.96875 -0.90625 0  -0.9375 -0.90625 0  -0.90625 -0.90625 0  -0.875 -0.90625 0  -0.84375 -0.90625 0  -0.8125 -0.90625 0  -0.78125 -0.90625 0  -0.75 -0.90625 0  -0.71875 -0.90625 0  -0.6875 -0.90625 0  -0.65625 -0.90625 0  -0.625 -0.90625 0  -0.59375 -0.90625 0  -0.5625 -0.90625 0  -0.53125 -0.90625 0  -0.5 -0.90625 0  -0.46875 -0.90625 0  -0.4375 -0.90625 0  -0.40625 -0.90625 0  -0.375 -0.90625 0  -0.34375 -0.90625 0  -0.3125 -0.90625 0  -0.28125 -0.90625 0  -0.25 -0.90625 0  -0.21875 -0.90625 0  -0.1875 -0.90625 0  -0.15625 -0.90625 0  -0.125 -0.90625 0  -0.09375 -0.90625 0  -0.0625 -0.90625 0  -0.03125 -0.90625 0  0 -0.90625 0  0.03125 -0.90625 0  0.0625 -0.90625 0  0.09375 -0.90625 0  0.125 -0.90625 0  0.15625 -0.90625 0  0.1875 -0.90625 0  0.21875 -0.90625 0  0.25 -0.90625 0  0.28125 -0.90625 0  0.3125 -0.90625 0  0.34375 -0.90625 0  0.375 -0.90625 0  0.40625 -0.90625 0  0.4375 -0.90625 0  0.46875 -0.90625 0  0.5 -0.90625 0  0.53125 -0.90625 0  0.5625 -0.90625 0  0.59375 -0.90625 0  0.625 -0.90625 0  0.65625 -0.90625 0  0.6875 -0.90625 0  0.71875 -0.90625 0  0.75 -0.90625 0  0.78125 -0.90625 0  0.8125 -0.90625 0  0.84375 -0.90625 0  0.875 -0.90625 0  0.90625 -0.90625 0  0.9375 -0.90625 0  0.96875 -0.90625 0  1 -0.90625 0  -1 -0.875 0  -0.96875 -0.875 0  -0.9375 -0.875 0  -0.90625 -0.875 0  -0.875 -0.875 0  -0.84375 -0.875 0  -0.8125 -0.875 0  -0.78125 -0.875 0  -0.75 -0.875 0  -0.71875 -0.875 0  -0.6875 -0.875 0  -0.65625 -0.875 0  -0.625 -0.875 0  -0.59375 -0.875 0  -0.5625 -0.875 0  -0.53125 -0.875 0  -0.5 -0.875 0  -0.46875 -0.875 0  -0.4375 -0.875 0  -0.40625 -0.875 0  -0.375 -0.875 0  -0.34375 -0.875 0  -0.3125 -0.875 0  -0.28125 -0.875 0  -0.25 -0.875 0  -0.21875 -0.875 0  -0.1875 -0.875 0  -0.15625 -0.875 0  -0.125 -0.875 0  -0.09375 -0.875 0  -0.0625 -0.875 0  -0.03125 -0.875 0  0 -0.875 0  0.03125 -0.875 0  0.0625 -0.875 0  0.09375 -0.875 0  0.125 -0.875 0  0.15625 -0.875 0  0.1875 -0.875 0  0.21875 -0.875 0  0.25 -0.875 0  0.28125 -0.875 0  0.3125 -0.875 0  0.34375 -0.875 0  0.375 -0.875 0  0.40625 -0.875 0  0.4375 -0.875 0  0.46875 -0.875 0  0.5 -0.875 0  0.53125 -0.875 0  0.5625 -0.875 0  0.59375 -0.875 0  0.625 -0.875 0  0.65625 -0.875 0  0.6875 -0.875 0  0.71875 -0.875 0  0.75 -0.875 0  0.78125 -0.875 0  0.8125 -0.875 0  0.84375 -0.875 0  0.875 -0.875 0  0.90625 -0.875 0  0.9375 -0.875 0  0.96875 -0.875 0  1 -0.875 0  -1 -0.84375 0  -0.96875 -0.84375 0  -0.9375 -0.84375 0  -0.90625 -0.84375 0  -0.875 -0.84375 0  -0.84375 -0.84375 0  -0.8125 -0.84375 0  -0.78125 -0.84375 0  -0.75 -0.84375 0  -0.71875 -0.84375 0  -0.6875 -0.84375 0  -0.65625 -0.84375 0  -0.625 -0.84375 0  -0.59375 -0.84375 0  -0.5625 -0.84375 0  -0.53125 -0.84375 0  -0.5 -0.84375 0  -0.46875 -0.84375 0  -0.4375 -0.84375 0  -0.40625 -0.84375 0  -0.375 -0.84375 0  -0.34375 -0.84375 0  -0.3125 -0.84375 0  -0.28125 -0.84375 0  -0.25 -0.84375 0  -0.21875 -0.84375 0  -0.1875 -0.84375 0  -0.15625 -0.84375 0  -0.125 -0.84375 0  -0.09375 -0.84375 0  -0.0625 -0.84375 0  -0.03125 -0.84375 0  0 -0.84375 0  0.03125 -0.84375 0  0.0625 -0.84375 0  0.09375 -0.84375 0  0.125 -0.84375 0  0.15625 -0.84375 0  0.1875 -0.84375 0  0.21875 -0.84375 0  0.25 -0.84375 0  0.28125 -0.84375 0  0.3125 -0.84375 0  0.34375 -0.84375 0  0.375 -0.84375 0  0.40625 -0.84375 0  0.4375 -0.84375 0  0.46875 -0.84375 0  0.5 -0.84375 0  0.53125 -0.84375 0  0.5625 -0.84375 0  0.59375 -0.84375 0  0.625 -0.84375 0  0.65625 -0.84375 0  0.6875 -0.84375 0  0.71875 -0.84375 0  0.75 -0.84375 0  0.78125 -0.84375 0  0.8125 -0.84375 0  0.84375 -0.84375 0  0.875 -0.84375 0  0.90625 -0.84375 0  0.9375 -0.84375 0  0.96875 -0.84375 0  1 -0.84375 0  -1 -0.8125 0  -0.96875 -0.8125 0  -0.9375 -0.8125 0  -0.90625 -0.8125 0  -0.875 -0.8125 0  -0.84375 -0.8125 0  -0.8125 -0.8125 0  -0.78125 -0.8125 0  -0.75 -0.8125 0  -0.71875 -0.8125 0  -0.6875 -0.8125 0  -0.65625 -0.8125 0  -0.625 -0.8125 0  -0.59375 -0.8125 0  -0.5625 -0.8125 0  -0.53125 -0.8125 0  -0.5 -0.8125 0  -0.46875 -0.8125 0  -0.4375 -0.8125 0  -0.40625 -0.8125 0  -0.375 -0.8125 0  -0.34375 -0.8125 0  -0.3125 -0.8125 0  -0.28125 -0.8125 0  -0.25 -0.8125 0  -0.21875 -0.8125 0  -0.1875 -0.8125 0  -0.15625 -0.8125 0  -0.125 -0.8125 0  -0.09375 -0.8125 0  -0.0625 -0.8125 0  -0.03125 -0.8125 0  0 -0.8125 0  0.03125 -0.8125 0  0.0625 -0.8125 0  0.09375 -0.8125 0  0.125 -0.8125 0  0.15625 -0.8125 0  0.1875 -0.8125 0  0.21875 -0.8125 0  0.25 -0.8125 0  0.28125 -0.8125 0  0.3125 -0.8125 0  0.34375 -0.8125 0  0.375 -0.8125 0  0.40625 -0.8125 0  0.4375 -0.8125 0  0.46875 -0.8125 0  0.5 -0.8125 0  0.53125 -0.8125 0  0.5625 -0.8125 0  0.59375 -0.8125 0  0.625 -0.8125 0  0.65625 -0.8125 0  0.6875 -0.8125 0  0.71875 -0.8125 0  0.75 -0.8125 0  0.78125 -0.8125 0  0.8125 -0.8125 0  0.84375 -0.8125 0  0.875 -0.8125 0  0.90625 -0.8125 0  0.9375 -0.8125 0  0.96875 -0.8125 0  1 -0.8125 0  -1 -0.78125 0  -0.96875 -0.78125 0  -0.9375 -0.78125 0  -0.90625 -0.78125 0  -0.875 -0.78125 0  -0.84375 -0.78125 0  -0.8125 -0.78125 0  -0.78125 -0.78125 0  -0.75 -0.78125 0  -0.71875 -0.78125 0  -0.6875 -0.78125 0  -0.65625 -0.78125 0  -0.625 -0.78125 0  -0.59375 -0.78125 0  -0.5625 -0.78125 0  -0.53125 -0.78125 0  -0.5 -0.78125 0  -0.46875 -0.78125 0  -0.4375 -0.78125 0  -0.40625 -0.78125 0  -0.375 -0.78125 0  -0.34375 -0.78125 0  -0.3125 -0.78125 0  -0.28125 -0.78125 0  -0.25 -0.78125 0  -0.21875 -0.78125 0  -0.1875 -0.78125 0  -0.15625 -0.78125 0  -0.125 -0.78125 0  -0.09375 -0.78125 0  -0.0625 -0.78125 0  -0.03125 -0.78125 0  0 -0.78125 0  0.03125 -0.78125 0  0.0625 -0.78125 0  0.09375 -0.78125 0  0.125 -0.78125 0  0.15625 -0.78125 0  0.1875 -0.78125 0  0.21875 -0.78125 0  0.25 -0.78125 0  0.28125 -0.78125 0  0.3125 -0.78125 0  0.34375 -0.78125 0  0.375 -0.78125 0  0.40625 -0.78125 0  0.4375 -0.78125 0  0.46875 -0.78125 0  0.5 -0.78125 0  0.53125 -0.78125 0  0.5625 -0.78125 0  0.59375 -0.78125 0  0.625 -0.78125 0  0.65625 -0.78125 0  0.6875 -0.78125 0  0.71875 -0.78125 0  0.75 -0.78125 0  0.78125 -0.78125 0  0.8125 -0.78125 0  0.84375 -0.78125 0  0.875 -0.78125 0  0.90625 -0.78125 0  0.9375 -0.78125 0  0.96875 -0.78125 0  1 -0.78125 0  -1 -0.75 0  -0.96875 -0.75 0  -0.9375 -0.75 0  -0.90625 -0.75 0  -0.875 -0.75 0  -0.84375 -0.75 0  -0.8125 -0.75 0  -0.78125 -0.75 0  -0.75 -0.75 0  -0.71875 -0.75 0  -0.6875 -0.75 0  -0.65625 -0.75 0  -0.625 -0.75 0  -0.59375 -0.75 0  -0.5625 -0.75 0  -0.53125 -0.75 0  -0.5 -0.75 0  -0.46875 -0.75 0  -0.4375 -0.75 0  -0.40625 -0.75
[...]
<PointData  Scalars="f_15"> 
<DataArray  type="Float64"  Name="f_15"  format="ascii">-4.4873709924744282e-01  -4.4442592048008905e-01  -4.3165806036032051e-01  -4.1092418059224139e-01  -3.8302107254764517e-01  -3.4902103702044240e-01  -3.1023067630850409e-01  -2.6814068222010490e-01  -2.2436854962372135e-01  -1.8059641702733784e-01  -1.3850642293893861e-01  -9.9716062227000316e-02  -6.5716026699797564e-02  -3.7812918655201325e-02  -1.7079038887122203e-02  -4.3111787673536838e-03  0.0000000000000000e+00  -4.3111787673536838e-03  -1.7079038887122235e-02  -3.7812918655201359e-02  -6.5716026699797606e-02  -9.9716062227000357e-02  -1.3850642293893875e-01  -1.8059641702733797e-01  -2.2436854962372141e-01  -2.6814068222010490e-01  -3.1023067630850404e-01  -3.4902103702044251e-01  -3.8302107254764517e-01  -4.1092418059224139e-01  -4.3165806036032056e-01  -4.4442592048008905e-01  -4.4873709924744282e-01  -4.4442592048008905e-01  -4.3165806036032056e-01  -4.1092418059224139e-01  -3.8302107254764517e-01  -3.4902103702044251e-01  -3.1023067630850404e-01  -2.6814068222010490e-01  -2.2436854962372141e-01  -1.8059641702733797e-01  -1.3850642293893875e-01  -9.9716062227000357e-02  -6.5716026699797606e-02  -3.7812918655201359e-02  -1.7079038887122235e-02  -4.3111787673536838e-03  0.0000000000000000e+00  -4.3111787673536838e-03  -1.7079038887122203e-02  -3.7812918655201325e-02  -6.5716026699797564e-02  -9.9716062227000316e-02  -1.3850642293893861e-01  -1.8059641702733784e-01  -2.2436854962372135e-01  -2.6814068222010490e-01  -3.1023067630850409e-01  -3.4902103702044240e-01  -3.8302107254764517e-01  -4.1092418059224139e-01  -4.3165806036032051e-01  -4.4442592048008905e-01  -4.4873709924744282e-01  -4.4442592048008905e-01  -3.3704408877547393e-01  -3.2017905026216659e-01  -2.8724845171419688e-01  -2.4529160422421548e-01  -1.9522688797625948e-01  -1.3886751948041373e-01  -7.8191091451954339e-02  -1.5260739866182819e-02  4.7849886183275389e-02  1.0912399267775176e-01  1.6666390472071435e-01  2.1874625423941543e-01  2.6386878035846761e-01  3.0078838973478700e-01  3.2855067001891475e-01  3.4651128353650307e-01  3.5434954498636573e-01  3.5207435320094493e-01  3.4002224280291815e-01  3.1884689748362949e-01  2.8949863730263109e-01  2.5319146991208719e-01  2.1135420693092455e-01  1.6556187674517131e-01  1.1744519911206243e-01  6.8580800187993382e-02  2.0373141439946094e-02  -2.6051596930955465e-02  -6.9914662903509422e-02  -1.1079708027165577e-01  -1.4859117811106023e-01  -1.8340740749331300e-01  -2.1546636035015138e-01  -2.4500645597868376e-01  -2.7222565342471600e-01  -2.9725897313471122e-01  -3.2018089551720563e-01  -3.4101781493736466e-01  -3.5975912050258968e-01  -3.7636253064815539e-01  -3.9075527292732604e-01  -4.0283596089112073e-01  -4.1248177975452088e-01  -4.1956354899242371e-01  -4.2396813566188751e-01  -4.2562523309244127e-01  -4.2453368675751924e-01  -4.2078215808603592e-01  -4.1455925839044966e-01  -4.0614996579506651e-01  -3.9591691437944959e-01  -3.8426913727120648e-01  -3.7162141723562669e-01  -3.5836237036322788e-01  -3.4482802652307182e-01  -3.3138045662230181e-01  -3.1843027445540301e-01  -3.0702068130207910e-01  -2.9815406431882185e-01  -2.9573350848119467e-01  -2.9773535746521174e-01  -3.2105386455871010e-01  -3.1849569976973918e-01  -4.4442592048008905e-01  -4.3165806036032051e-01  -3.1532910847451850e-01  -3.3211915472028863e-01  -3.1060896429389456e-01  -2.8210584678797679e-01  -2.4565289481280320e-01  -2.0308250446768114e-01  -1.5613644715986755e-01  -1.0666069751155363e-01  -5.6530191214016180e-02  -7.5798080163455295e-03  3.8462536545233024e-02  8.0034980092471938e-02  1.1579098572318296e-01  1.4463860823709357e-01  1.6577040265716989e-01  1.7868451359122633e-01  1.8319718040098909e-01  1.7944635001601586e-01  1.6788573396702983e-01  1.4926794387173858e-01  1.2461457914925970e-01  9.5170018976283063e-02  6.2335228636299866e-02  2.7579091674715145e-02  -7.6705515193894120e-03  -4.2145742156127049e-02  -7.4847104253875876e-02  -1.0511697974536408e-01  -1.3265587178375401e-01  -1.5747607220959778e-01  -1.7980612988874034e-01  -1.9997442585866762e-01  -2.1830297196515519e-01  -2.3503377114844740e-01  -2.5029602901358350e-01  -2.6410963154468314e-01  -2.7641300235842942e-01  -2.8710182712085341e-01  -2.9606788368676923e-01  -3.0323128086680812e-01  -3.0856326763817166e-01  -3.1209893024407731e-01  -3.1394029045547994e-01  -3.1425064276904546e-01  -3.1324161783176241e-01  -3.1115505305732905e-01  -3.0824269903855017e-01  -3.0474709912327080e-01  -3.0088690194314655e-01  -2.9684887359615647e-01  -2.9278729404155074e-01  -2.8883127716784213e-01  -2.8509669817797323e-01  -2.8171345568118672e-01  -2.7884492630990398e-01  -2.7679946025248869e-01  -2.7598188107777333e-01  -2.7746434654227220e-01  -2.8182448609694527e-01  -2.9269412246278642e-01  -3.0516831164791941e-01  -3.3619651653345378e-01  -3.2189526446677580e-01  -4.3165806036032051e-01  -4.1092418059224139e-01  -2.9729667998373682e-01  -3.0819089117869264e-01  -2.8431640754332005e-01  -2.5637728424058109e-01  -2.2032702353599115e-01  -1.7819714829588998e-01  -1.3149667570453408e-01  -8.1935568589811214e-02  -3.1311865677941655e-02  1.8555381295865699e-02  6.5903567399967777e-02  1.0910113401062128e-01  1.4671325724179404e-01  1.7755540892061245e-01  2.0073412220892084e-01  2.1567562522624284e-01  2.2214316507913281e-01  2.2024326843976044e-01  2.1042006550922723e-01  1.9343546901369205e-01  1.7033174608072768e-01  1.4237265492328044e-01  1.1096088327856024e-01  7.7534053857894997e-02  4.3448861057675821e-02  9.8706942250997454e-03  -2.2309819773845860e-02  -5.2515356124884095e-02  -8.0468674660578443e-02  -1.0613527722913287e-01  -1.2964066251102874e-01  -1.5118427388871652e-01  -1.7096805356276423e-01  -1.8914937757845809e-01  -2.0581989138248039e-01  -2.2100582862411516e-01  -2.3468247731265382e-01  -2.4679523413628796e-01  -2.5728119369677155e-01  -2.6608747428512469e-01  -2.7318455876711839e-01  -2.7857447968331189e-01  -2.8229451666649064e-01  -2.8441746879290303e-01  -2.8504961774714982e-01  -2.8432745101126494e-01  -2.8241399879620721e-01  -2.7949543367048796e-01  -2.7577821152322235e-01  -2.7148699565223189e-01  -2.6686310480135822e-01  -2.6216527028092479e-01  -2.5767047728087727e-01  -2.5369097809520474e-01  -2.5057506052257877e-01  -2.4881766306129036e-01  -2.4893079182617392e-01  -2.5210019028994485e-01  -2.5847672369940344e-01  -2.7172693231712380e-01  -2.8363810985933324e-01  -3.1445930689176882e-01  -2.8354327894051234e-01  -4.1092418059224139e-01  -3.8302107254764517e-01  -2.9054830788307645e-01  -2.9318297001856619e-01  -2.7011970026136667e-01  -2.4328279659291036e-01  -2.0980483290416382e-01  -1.7147893981196838e-01  -1.2942944980226559e-01  -8.5060112150547734e-02  -3.9865830561655338e-02  4.6148496601379667e-03  4.6869334289724375e-02  8.5481761933551129e-02  1.1919927889656061e-01  1.4698868811508400e-01  1.6808062609660016e-01  1.8200014466350573e-01  1.8858327907910061e-01  1.8797912440676640e-01  1.8063630278600015e-01  1.6727223737959357e-01  1.4882376480091142e-01  1.2637920548568687e-01  1.0109518239189097e-01  7.4105998595285216e-02  4.6437527904164250e-02  1.8939279604448390e-02  -7.7542626187915463e-03  -3.3228420520849122e-02  -5.7262720635115588e-02  -7.9784800461327368e-02  -1.0081627851377012e-01  -1.2042178662771340e-01  -1.3866876478537030e-01  -1.5560151233436059e-01  -1.7122944588653569e-01  -1.8552716358916285e-01  -1.9844265454772278e-01  -2.0990985508924401e-01  -2.1986226976239256e-01  -2.2824537704911513e-01  -2.3502649487119023e-01  -2.4020164245392636e-01  -2.4379942978387040e-01  -2.4588237478194147e-01  -2.4654616260191617e-01  -2.4591751924811051e-01  -2.4415137876602602e-01  -2.4142807952956805e-01  -2.3795115990187035e-01  -2.3394641383939402e-01  -2.2966219736716742e-01  -2.2537320217796458e-01  -2.2138398809722187e-01  -2.1805090412594114e-01  -2.1577621085715504e-01  -2.1513266290622624e-01  -2.1665159289762723e-01  -2.2160831775200429e-01  -2.2967645881874005e-01  -2.4477421915611314e-01  -2.5537745689137642e-01  -2.8677266489477449e-01  -2.4238515929276955e-01  -3.8302107254764517e-01  -3.4902103702044240e-01  -2.9238396491080049e-01  -2.8321010218466086e-01  -2.5786364660229988e-01  -2.2934722517110548e-01  -1.9590017877593663e-01  -1.5864018546671163e-01  -1.1844724291253322e-01  -7.6464282684116106e-02  -3.3929658708586379e-02  7.8526450399009455e-03  4.7575133171518340e-02  8.3991187904308109e-02  1.1597934716071831e-01  1.4260170808022085e-01  1.6315200145215208e-01  1.7719014214434053e-01  1.8456121836868955e-01  1.8539747793486658e-01  1.8010238007016094e-01  1.6931632844035893e-01  1.5386505455669117e-01  1.3469370729207195e-01  1.1279255136811812e-01  8.9122687707852075e-02  6.4551429443156491e-02  3.9805774614380465e-02  1.5448945359546638e-02  -8.1198306408610133e-03  -3.0646508824657546e-02  -5.1991295128647856e-02  -7.2093083753027587e-02  -9.0935608217581482e-02  -1.0851968648514224e-01  -1.2484375701462398e-01  -1.3989310712292291e-01  -1.5363675968839627e-01  -1.6603021717065944e-01  -1.7702187281440920e-01  -1.8656109498353374e-01  -1.9460632523450599e-01  -2.0113215667372947e-01  -2.0613479907921686e-01  -2.0963584382884679e-01  -2.1168443576245125e-01  -2.1235823102964713e-01  -2.1176351403806615e-01  -2.1003495533325120e-01  -2.0733537673993913e-01  -2.0385587080435685e-01  -1.9981670666818094e-01  -1.9546892981004504e-01  -1.9109921806739921e-01  -1.8703316992508601e-01  -1.8365962482457818e-01  -1.8141541673913822e-01  -1.8092951028804083e-01  -1.8272001123874310e-01  -1.8815379165833804e-01  -1.9636242977685514e-01  -2.1173661403986521e-01  -2.1929560412321603e-01  -2.5077151173283369e-01  -1.9191595969304048e-01  -3.4902103702044240e-01  -3.1023067630850409e-01  -2.9996543118575170e-01  -2.7824551644776641e-01  -2.5083222535912625e-01  -2.2069953516177759e-01  -1.8709049372776890e-01  -1.5074425542190323e-01  -1.1238147884933758e-01  -7.2914082504567448e-02  -3.3350688195065523e-02  5.2386478081821435e-03  4.1777241260257114e-02  7.5236181486249734e-02  1.0468912749130599e-01  1.2936270386942014e-01  1.4867831609888521e-01  1.6228193351789325e-01  1.7005928412258045e-01  1.7213501138556678e-01  1.6885539340501787e-01  1.6075560322673429e-01  1.4851399743720217e-01  1.3289769093269327e-01  1.1470510234479675e-01  9.4711913699288122e-02  7.3626379473939477e-02  5.2058250553246081e-02  3.0503048911861248e-02  9.3408370432285035e-03  -1.1153392919094734e-02  -3.0791672748795681e-02  -4.9451449725433763e-02  -6.7054024464343692e-02  -8.3545715187183761e-02  -9.8883453166918808e-02  -1.1302546470367379e-01  -1.2592689589391948e-01  -1.3753953706344293e-01  -1.4781452249186530e-01  -1.5670673028253038e-01  -1.6417983635680453e-01  -1.7021116429246250e-01  -1.7479587562539139e-01  -1.7795023791016990e-01  -1.7971402106680481e-01  -1.8015212176287895e-01  -1.7935570306890719e-01  -1.7744306397107251e-01  -1.7456058233603622e-01  -1.7088390293370842e-01  -1.6661992296191677e-01  -1.6200932614955665e-01  -1.5733276230533291e-01  -1.5291435881543636e-01  -1.4914971328881951e-01  -1.4648145704946713e-01  -1.4556869482566467e-01  -1.4688290631605200e-01  -1.5188619683098634e-01  -1.5911791610428741e-01  -1.7369036990048667e-01  -1.7706272730068753e-01  -2.0855922408285940e-01  -1.3537225105700848e-01  -3.1023067630850409e-01  -2.6814068222010490e-01  -3.1084235537436250e-01  -2.7674540847610585e-01  -2.4765817604668156e-01  -2.1586908024376067e-01  -1.8186456574992219e-01  -1.4604371180553180e-01  -1.0897028720434891e-01  -7.1370852701317739e-02  -3.4067484959807638e-02  2.0635792453377443e-03  3.6138211447253273e-02  6.7310367038044064e-02  9.4817847689146667e-02  1.1802426223063452e-01  1.3645399760954974e-01  1.4981711837418019e-01  1.5802186685080363e-01  1.6117345818633835e-01  1.5955911309296378e-01  1.5362064341939438e-01  1.4391726673537455e-01  1.3108250256240792e-01  1.1577970003131763e-01  9.8660802877655204e-02  8.0332243776388729e-02  6.1330566907903762e-02  4.2108757533902107e-02  2.3032726259014962e-02  4.3861929665070390e-03  -1.3618472763293090e-02  -3.0826112739781267e-02  -4.7123801290375626e-02  -6.2427023116608554e-02  -7.6668382885998629e-02  -8.9789562822990637e-02  -1.0173664097034359e-01  -1.1245840929038307e-01  -1.2190703043293281e-01  -1.3004026073462790e-01  -1.3682449946481781e-01  -1.4223807234783495e-01  -1.4627434019500596e-01  -1.4894441572976366e-01  -1.5027942742605574e-01  -1.5033239237835427e-01  -1.4917982268227672e-01  -1.4692324559827546e-01  -1.4369083602855198e-01  -1.3963934746779369e-01  -1.3495684181744261e-01  -1.2986596035658499e-01  -1.2463116723868999e-01  -1.1956234267290762e-01  -1.1504651874289842e-01  -1.1151376076685553e-01  -1.0963558746315814e-01  -1.0981180129268513e-01  -1.1360766198011786e-01  -1.1893846662128971e-01  -1.3187335063258188e-01  -1.3023443838787108e-01  -1.6184837622380613e-01  -7.4511899621500954e-02  -2.6814068222010490e-01  -2.2436854962372135e-01  -3.2338601525041943e-01  -2.7745656411893405e-01  -2.4737017407533432e-01  -2.1424366461162486e-01  -1.7998199034214615e-01  -1.4465523794035925e-01  -1.0872558582985474e-01  -7.2775348434524142e-02  -3.7473368153368089e-02  -3.5340716537106838e-03  2.8322759098817339e-02  5.7411330268758928e-02  8.3117348282050876e-02  1.0493159280597703e-01  1.2247729756604971e-01  1.3552911952060223e-01  1.4402207838146497e-01  1.4804963951809075e-01  1.4785120016732628e-01  1.4379024766951512e-01  1.3632550014680644e-01  1.2597798087781567e-01  1.1329736507809601e-01  9.8830734739876275e-02  8.3096365256490265e-02  6.6564240201015770e-02  4.9644018822541873e-02  3.2680193791442234e-02  1.5953429026003156e-02  -3.1344130451763672e-04  -1.5946489649594699e-02  -3.0810536288478702e-02  -4.4799224754735599e-02  -5.7826405466021129e-02  -6.9819509243229883e-02  -8.0715134740254879e-02  -9.0456772229948620e-02  -9.8994298907429668e-02  -1.0628480592114170e-01  -1.1229425113934405e-01  -1.1699954778851653e-01  -1.2039074893090899e-01  -1.2247316832082387e-01  -1.2326932348116905e-01  -1.2282073865718972e-01  -1.2118965170108674e-01  -1.1846076086896729e-01  -1.1474315740027176e-01  -1.1017261895209059e-01  -1.0491477979287669e-01  -9.9168879820084141e-02  -9.3175865970110502e-02  -8.7221930223819341e-02  -8.1673873380449832e-02  -7.6935174600070322e-02  -7.3675288589809887e-02  -7.2204130149087192e-02  -7.4198521389097535e-02  -7.6942526995089064e-02  -8.7663396644018191e-02  -8.0538177868108185e-02  -1.1249263712791840e-01  -1.1440272824377439e-02  -2.2436854962372135e-01  -1.8059641702733784e-01  -3.3670584480828269e-01  -2.7953462045109101e-01  -2.4910176977359955e-01  -2.1492845093714083e-01  -1.8052750645347992e-01  -1.4565717664118225e-01  -1.1071619903403070e-01  -7.6167272067479780e-02  -4.2553565940979463e-02  -1.0455719779483612e-02  1.9542805581858873e-02  4.6888862590216844e-02  7.1090154711462281e-02  9.1741920187231651e-02  1.0854820245067043e-01  1.2133626006744294e-01  1.3006303147629672e-01  1.3481323155906763e-01  1.3578935676759374e-01  1.3329470385318776e-01  1.2771112335820836e-01  1.1947374893033859e-01  1.0904507241247269e-01  9.6890662265663688e-02  8.3458377769660960e-02  6.9162374596708015e-02  5.4372484608137019e-02  3.9408917229839364e-02  2.4541661551104325e-02  9.9935933078673968e-03  -4.0539051994767511e-03  -1.7454027253748700e-02  -3.0087398010702461e-02  -4.1855561661857735e-02  -5.2675646360373800e-02  -6.2476496938260705e-02  -7.1196283636893468e-02  -7.8781444741766612e-02  -8.5186676628508887e-02  -9.0375688087059952e-02  -9.4322413913599717e-02  -9.7012485935842038e-02  -9.8444780805287832e-02  -9.8632995218158215e-02  -9.7607207379137820e-02  -9.5415489877918092e-02  -9.2125632969091223e-02  -8.7827150316933930e-02  -8.2633692477034948e-02  -7.6686449864326600e-02  -7.0158163901236095e-02  -6.3261833205179585e-02  -5.6254068237984921e-02  -4.9473561795466831e-02  -4.3287826930134769e-02  -3.8352974346059325e-02  -3.4879212841213050e-02  -3.4661054510646050e-02  -3.4373675456710898e-02  -4.2546698636453835e-02  -2.9790415838369562e-02  -6.2372313809090932e-02  5.1772246886131197e-02  -1.8059641702733784e-01  -1.3850642293893861e-01  -3.5034059036850307e-01  -2.8245771180561285e-01  -2.5222617391189067e-01  -2.1724736360567015e-01  -1.8281517882684548e-01  -1.4837917889659094e-01  -1.1430800297820484e-01  -8.0968844249371744e-02  -4.8803414676291249e-02  -1.8281636609231634e-02  1.0126436333116646e-02  3.5978291552497134e-02  5.8883670175231474e-02  7.8525628824639288e-02  9.4676908330930648e-02  1.0721067569654863e-01  1.1610501865926698e-01  1.2144099396395736e-01  1.2339458500031064e-01  1.2222342942239302e-01  1.1824965258158616e-01  1.1184041921581790e-01  1.0338794650510687e-01  9.3290601184063640e-02  8.1936451600540458e-02  6.9690219323615937e-02  5.6884128660578896e-02  4.3812677089264125e-02  3.0730970311822092e-02  1.7855968149052041e-02  5.3698285362229689e-03  -6.5755043501334303e-03  -1.7853260031498373e-02  -2.8356994134360790e-02  -3.7996400146052815e-02  -4.6694040041761052e-02  -5.4383089251613267e-02  -6.1006037739930172e-02  -6.6514214489881124e-02  -7.0867940417251585e-02  -7.4037136996752309e-02  -7.6002217869839017e-02  -7.6755164786388982e-02  -7.6300704677657580e-02  -7.4657586728798589e-02  -7.1859972914969858e-02  -6.7959025212318502e-02  -6.3024818540125732e-02  -5.7148741756638644e-02  -5.0446944588199073e-02  -4.3064476038575869e-02  -3.5184306804172658e-02  -2.7030469592175015e-02  -1.8908812487828601e-02  -1.1145764821123767e-02  -4.3755549549565993e-03  1.2919746324546878e-03  3.9441037513458892e-03  7.4609029227756894e-03  1.9450855996315205e-03  2.0174029795688060e-02  -1.3327505775143288e-02  1.1310950712129615e-01  -1.3850642293893861e-01  -9.9716062227000316e-02  -3.6398422106598960e-01  -2.8590508317448393e-01  -2.5628164707018386e-01  -2.2066586193642948e-01  -1.8626933477759836e-01  -1.5222851075834670e-01  -1.1891031707477571e-01  -8.6604931537822949e-02  -5.5671613087914545e-02  -2.6488266382171329e-02  5.6971140506919811e-04  2.5152226425205419e-02  4.6954169702268421e-02  6.5731889314055728e-02  8.1315699353232837e-02  9.3617848837236853e-02  1.0263558830044567e-01  1.0844929541032007e-01  1.1121598942120241e-01  1.1115892454230918e-01  1.0855425825425177e-01  1.0371598878392310e-01  9.6980422304572572e-02  8.8691366675282851e-02  7.9187050066196488e-02  6.8789492830563778e-02  5.7796723781381183e-02  4.6477921732293100e-02  3.5071264160664167e-02  2.3784061401811905e-02  1.2794611723266628e-02  2.2551762043475890e-03  -7.7045088995737190e-03  -1.6973669121652494e-02  -2.5457252553323158e-02  -3.3073247553352877e-02  -3.9750672590728002e-02  -4.5428243601450549e-02  -5.0053656019984419e-02  -5.3583376075581036e-02  -5.5982824121160436e-02  -5.7226845506805298e-02  -5.7300384554536198e-02  -5.6199316179527121e-02  -5.3931419683336562e-02  -5.0517523362141846e-02  -4.5992884936783628e-02  -4.0408950850045561e-02  -3.3835649457735595e-02  -2.6364788498473249e-02  -1.8114204078464733e-02  -9.2368753147908066e-03  7.6099990055627343e-05  9.5534590480055269e-03  1.8910763352303992e-02  2.7541458459773443e-02  3.5427390651758081e-02  4.0545762440107727e-02  4.7248774788478096e-02  4.4301717939749394e-02  6.7580315513531344e-02  3.2908229110152169e-02  1.7067704190733515e-01  -9.9716062227000316e-02  -6.5716026699797564e-02  -3.7732691159353732e-01  -2.8966584637932635e-01  -2.6090426678827278e-01  -2.2475568656322714e-01  -1.9042742998974191e-01  -1.5673388391485857e-01  -1.2406162829335400e-01  -9.2637559970152675e-02  -6.2753797209737103e-02  -3.4711303875552310e-02  -8.8058798307199156e-03  1.4690257108961617e-02  3.5543783106030187e-02  5.3572974138921432e-02  6.8657145008546860e-02  8.0742467716999111e-02  8.9843961870211347e-02  9.6043703996337534e-02  9.9485543720482961e-02  1.0036688441831934e-01  9.8928269626516602e-02  9.5441665346751595e-02  9.0198357426372083e-02  8.3497339136596960e-02  7.5634928018055089e-02  6.689