<?xml version="1.0"?>
<VTKFile type="UnstructuredGrid"  version="0.1"  >
<UnstructuredGrid>
<Piece  NumberOfPoints="4225" NumberOfCells="8192">
<Points>
<DataArray  type="Float64"  NumberOfComponents="3"  format="ascii">-1 -1 0  -0.96875 -1 0  -0.9375 -1 0  -0.90625 -1 0  -0.875 -1 0  -0.84375 -1 0  -0.8125 -1 0  -0.78125 -1 0  -0.75 -1 0  -0.71875 -1 0  -0.6875 -1 0  -0.65625 -1 0  -0.625 -1 0  -0.59375 -1 0  -0.5625 -1 0  -0.53125 -1 0  -0.5 -1 0  -0.46875 -1 0  -0.4375 -1 0  -0.40625 -1 0  -0.375 -1 0  -0.34375 -1 0  -0.3125 -1 0  -0.28125 -1 0  -0.25 -1 0  -0.21875 -1 0  -0.1875 -1 0  -0.15625 -1 0  -0.125 -1 0  -0.09375 -1 0  -0.0625 -1 0  -0.03125 -1 0  0 -1 0  0.03125 -1 0  0.0625 -1 0  0.09375 -1 0  0.125 -1 0  0.15625 -1 0  0.1875 -1 0  0.21875 -1 0  0.25 -1 0  0.28125 -1 0  0.3125 -1 0  0.34375 -1 0  0.375 -1 0  0.40625 -1 0  0.4375 -1 0  0.46875 -1 0  0.5 -1 0  0.53125 -1 0  0.5625 -1 0  0.59375 -1 0  0.625 -1 0  0.65625 -1 0  0.6875 -1 0  0.71875 -1 0  0.75 -1 0  0.78125 -1 0  0.8125 -1 0  0.84375 -1 0  0.875 -1 0  0.90625 -1 0  0.9375 -1 0  0.96875 -1 0  1 -1 0  -1 -0.96875 0  -0.96875 -0.96875 0  -0.9375 -0.96875 0  -0.90625 -0.96875 0  -0.875 -0.96875 0  -0.84375 -0.96875 0  -0.8125 -0.96875 0  -0.78125 -0.96875 0  -0.75 -0.96875 0  -0.71875 -0.96875 0  -0.6875 -0.96875 0  -0.65625 -0.96875 0  -0.625 -0.96875 0  -0.59375 -0.96875 0  -0.5625 -0.96875 0  -0.53125 -0.96875 0  -0.5 -0.96875 0  -0.46875 -0.96875 0  -0.4375 -0.96875 0  -0.40625 -0.96875 0  -0.375 -0.96875 0  -0.34375 -0.96875 0  -0.3125 -0.96875 0  -0.28125 -0.96875 0  -0.25 -0.96875 0  -0.21875 -0.96875 0  -0.1875 -0.96875 0  -0.15625 -0.96875 0  -0.125 -0.96875 0  -0.09375 -0.96875 0  -0.0625 -0.96875 0  -0.03125 -0.96875 0  0 -0.96875 0  0.03125 -0.96875 0  0.0625 -0.96875 0  0.09375 -0.96875 0  0.125 -0.96875 0  0.15625 -0.96875 0  0.1875 -0.96875 0  0.21875 -0.96875 0  0.25 -0.96875 0  0.28125 -0.96875 0  0.3125 -0.96875 0  0.34375 -0.96875 0  0.375 -0.96875 0  0.40625 -0.96875 0  0.4375 -0.96875 0  0.46875 -0.96875 0  0.5 -0.96875 0  0.53125 -0.96875 0  0.5625 -0.96875 0  0.59375 -0.96875 0  0.625 -0.96875 0  0.65625 -0.96875 0  0.6875 -0.96875 0  0.71875 -0.96875 0  0.75 -0.96875 0  0.78125 -0.96875 0  0.8125 -0.96875 0  0.84375 -0.96875 0  0.875 -0.96875 0  0.90625 -0.96875 0  0.9375 -0.96875 0  0.96875 -0.96875 0  1 -0.96875 0  -1 -0.9375 0  -0.96875 -0.9375 0  -0.9375 -0.9375 0  -0.90625 -0.9375 0  -0.875 -0.9375 0  -0.84375 -0.9375 0  -0.8125 -0.9375 0  -0.78125 -0.9375 0  -0.75 -0.9375 0  -0.71875 -0.9375 0  -0.6875 -0.9375 0  -0.65625 -0.9375 0  -0.625 -0.9375 0  -0.59375 -0.9375 0  -0.5625 -0.9375 0  -0.53125 -0.9375 0  -0.5 -0.9375 0  -0.46875 -0.9375 0  -0.4375 -0.9375 0  -0.40625 -0.9375 0  -0.375 -0.9375 0  -0.34375 -0.9375 0  -0.3125 -0.9375 0  -0.28125 -0.9375 0  -0.25 -0.9375 0  -0.21875 -0.9375 0  -0.1875 -0.9375 0  -0.15625 -0.9375 0  -0.125 -0.9375 0  -0.09375 -0.9375 0  -0.0625 -0.9375 0  -0.03125 -0.9375 0  0 -0.9375 0  0.03125 -0.9375 0  0.0625 -0.9375 0  0.09375 -0.9375 0  0.125 -0.9375 0  0.15625 -0.9375 0  0.1875 -0.9375 0  0.21875 -0.9375 0  0.25 -0.9375 0  0.28125 -0.9375 0  0.3125 -0.9375 0  0.34375 -0.9375 0  0.375 -0.9375 0  0.40625 -0.9375 0  0.4375 -0.9375 0  0.46875 -0.9375 0  0.5 -0.9375 0  0.53125 -0.9375 0  0.5625 -0.9375 0  0.59375 -0.9375 0  0.625 -0.9375 0  0.65625 -0.9375 0  0.6875 -0.9375 0  0.71875 -0.9375 0  0.75 -0.9375 0  0.78125 -0.9375 0  0.8125 -0.9375 0  0.84375 -0.9375 0  0.875 -0.9375 0  0.90625 -0.9375 0  0.9375 -0.9375 0  0.96875 -0.9375 0  1 -0.9375 0  -1 -0.90625 0  -0.96875 -0.90625 0  -0.9375 -0.90625 0  -0.90625 -0.90625 0  -0.875 -0.90625 0  -0.84375 -0.90625 0  -0.8125 -0.90625 0  -0.78125 -0.90625 0  -0.75 -0.90625 0  -0.71875 -0.90625 0  -0.6875 -0.90625 0  -0.65625 -0.90625 0  -0.625 -0.90625 0  -0.59375 -0.90625 0  -0.5625 -0.90625 0  -0.53125 -0.90625 0  -0.5 -0.90625 0  -0.46875 -0.90625 0  -0.4375 -0.90625 0  -0.40625 -0.90625 0  -0.375 -0.90625 0  -0.34375 -0.90625 0  -0.3125 -0.90625 0  -0.28125 -0.90625 0  -0.25 -0.90625 0  -0.21875 -0.90625 0  -0.1875 -0.90625 0  -0.15625 -0.90625 0  -0.125 -0.90625 0  -0.09375 -0.90625 0  -0.0625 -0.90625 0  -0.03125 -0.90625 0  0 -0.90625 0  0.03125 -0.90625 0  0.0625 -0.90625 0  0.09375 -0.90625 0  0.125 -0.90625 0  0.15625 -0.90625 0  0.1875 -0.90625 0  0.21875 -0.90625 0  0.25 -0.90625 0  0.28125 -0.90625 0  0.3125 -0.90625 0  0.34375 -0.90625 0  0.375 -0.90625 0  0.40625 -0.90625 0  0.4375 -0.90625 0  0.46875 -0.90625 0  0.5 -0.90625 0  0.53125 -0.90625 0  0.5625 -0.90625 0  0.59375 -0.90625 0  0.625 -0.90625 0  0.65625 -0.90625 0  0.6875 -0.90625 0  0.71875 -0.90625 0  0.75 -0.90625 0  0.78125 -0.90625 0  0.8125 -0.90625 0  0.84375 -0.90625 0  0.875 -0.90625 0  0.90625 -0.90625 0  0.9375 -0.90625 0  0.96875 -0.90625 0  1 -0.90625 0  -1 -0.875 0  -0.96875 -0.875 0  -0.9375 -0.875 0  -0.90625 -0.875 0  -0.875 -0.875 0  -0.84375 -0.875 0  -0.8125 -0.875 0  -0.78125 -0.875 0  -0.75 -0.875 0  -0.71875 -0.875 0  -0.6875 -0.875 0  -0.65625 -0.875 0  -0.625 -0.875 0  -0.59375 -0.875 0  -0.5625 -0.875 0  -0.53125 -0.875 0  -0.5 -0.875 0  -0.46875 -0.875 0  -0.4375 -0.875 0  -0.40625 -0.875 0  -0.375 -0.875 0  -0.34375 -0.875 0  -0.3125 -0.875 0  -0.28125 -0.875 0  -0.25 -0.875 0  -0.21875 -0.875 0  -0.1875 -0.875 0  -0.15625 -0.875 0  -0.125 -0.875 0  -0.09375 -0.875 0  -0.0625 -0.875 0  -0.03125 -0.875 0  0 -0.875 0  0.03125 -0.875 0  0.0625 -0.875 0  0.09375 -0.875 0  0.125 -0.875 0  0.15625 -0.875 0  0.1875 -0.875 0  0.21875 -0.875 0  0.25 -0.875 0  0.28125 -0.875 0  0.3125 -0.875 0  0.34375 -0.875 0  0.375 -0.875 0  0.40625 -0.875 0  0.4375 -0.875 0  0.46875 -0.875 0  0.5 -0.875 0  0.53125 -0.875 0  0.5625 -0.875 0  0.59375 -0.875 0  0.625 -0.875 0  0.65625 -0.875 0  0.6875 -0.875 0  0.71875 -0.875 0  0.75 -0.875 0  0.78125 -0.875 0  0.8125 -0.875 0  0.84375 -0.875 0  0.875 -0.875 0  0.90625 -0.875 0  0.9375 -0.875 0  0.96875 -0.875 0  1 -0.875 0  -1 -0.84375 0  -0.96875 -0.84375 0  -0.9375 -0.84375 0  -0.90625 -0.84375 0  -0.875 -0.84375 0  -0.84375 -0.84375 0  -0.8125 -0.84375 0  -0.78125 -0.84375 0  -0.75 -0.84375 0  -0.71875 -0.84375 0  -0.6875 -0.84375 0  -0.65625 -0.84375 0  -0.625 -0.84375 0  -0.59375 -0.84375 0  -0.5625 -0.84375 0  -0.53125 -0.84375 0  -0.5 -0.84375 0  -0.46875 -0.84375 0  -0.4375 -0.84375 0  -0.40625 -0.84375 0  -0.375 -0.84375 0  -0.34375 -0.84375 0  -0.3125 -0.84375 0  -0.28125 -0.84375 0  -0.25 -0.84375 0  -0.21875 -0.84375 0  -0.1875 -0.84375 0  -0.15625 -0.84375 0  -0.125 -0.84375 0  -0.09375 -0.84375 0  -0.0625 -0.84375 0  -0.03125 -0.84375 0  0 -0.84375 0  0.03125 -0.84375 0  0.0625 -0.84375 0  0.09375 -0.84375 0  0.125 -0.84375 0  0.15625 -0.84375 0  0.1875 -0.84375 0  0.21875 -0.84375 0  0.25 -0.84375 0  0.28125 -0.84375 0  0.3125 -0.84375 0  0.34375 -0.84375 0  0.375 -0.84375 0  0.40625 -0.84375 0  0.4375 -0.84375 0  0.46875 -0.84375 0  0.5 -0.84375 0  0.53125 -0.84375 0  0.5625 -0.84375 0  0.59375 -0.84375 0  0.625 -0.84375 0  0.65625 -0.84375 0  0.6875 -0.84375 0  0.71875 -0.84375 0  0.75 -0.84375 0  0.78125 -0.84375 0  0.8125 -0.84375 0  0.84375 -0.84375 0  0.875 -0.84375 0  0.90625 -0.84375 0  0.9375 -0.84375 0  0.96875 -0.84375 0  1 -0.84375 0  -1 -0.8125 0  -0.96875 -0.8125 0  -0.9375 -0.8125 0  -0.90625 -0.8125 0  -0.875 -0.8125 0  -0.84375 -0.8125 0  -0.8125 -0.8125 0  -0.78125 -0.8125 0  -0.75 -0.8125 0  -0.71875 -0.8125 0  -0.6875 -0.8125 0  -0.65625 -0.8125 0  -0.625 -0.8125 0  -0.59375 -0.8125 0  -0.5625 -0.8125 0  -0.53125 -0.8125 0  -0.5 -0.8125 0  -0.46875 -0.8125 0  -0.4375 -0.8125 0  -0.40625 -0.8125 0  -0.375 -0.8125 0  -0.34375 -0.8125 0  -0.3125 -0.8125 0  -0.28125 -0.8125 0  -0.25 -0.8125 0  -0.21875 -0.8125 0  -0.1875 -0.8125 0  -0.15625 -0.8125 0  -0.125 -0.8125 0  -0.09375 -0.8125 0  -0.0625 -0.8125 0  -0.03125 -0.8125 0  0 -0.8125 0  0.03125 -0.8125 0  0.0625 -0.8125 0  0.09375 -0.8125 0  0.125 -0.8125 0  0.15625 -0.8125 0  0.1875 -0.8125 0  0.21875 -0.8125 0  0.25 -0.8125 0  0.28125 -0.8125 0  0.3125 -0.8125 0  0.34375 -0.8125 0  0.375 -0.8125 0  0.40625 -0.8125 0  0.4375 -0.8125 0  0.46875 -0.8125 0  0.5 -0.8125 0  0.53125 -0.8125 0  0.5625 -0.8125 0  0.59375 -0.8125 0  0.625 -0.8125 0  0.65625 -0.8125 0  0.6875 -0.8125 0  0.71875 -0.8125 0  0.75 -0.8125 0  0.78125 -0.8125 0  0.8125 -0.8125 0  0.84375 -0.8125 0  0.875 -0.8125 0  0.90625 -0.8125 0  0.9375 -0.8125 0  0.96875 -0.8125 0  1 -0.8125 0  -1 -0.78125 0  -0.96875 -0.78125 0  -0.9375 -0.78125 0  -0.90625 -0.78125 0  -0.875 -0.78125 0  -0.84375 -0.78125 0  -0.8125 -0.78125 0  -0.78125 -0.78125 0  -0.75 -0.78125 0  -0.71875 -0.78125 0  -0.6875 -0.78125 0  -0.65625 -0.78125 0  -0.625 -0.78125 0  -0.59375 -0.78125 0  -0.5625 -0.78125 0  -0.53125 -0.78125 0  -0.5 -0.78125 0  -0.46875 -0.78125 0  -0.4375 -0.78125 0  -0.40625 -0.78125 0  -0.375 -0.78125 0  -0.34375 -0.78125 0  -0.3125 -0.78125 0  -0.28125 -0.78125 0  -0.25 -0.78125 0  -0.21875 -0.78125 0  -0.1875 -0.78125 0  -0.15625 -0.78125 0  -0.125 -0.78125 0  -0.09375 -0.78125 0  -0.0625 -0.78125 0  -0.03125 -0.78125 0  0 -0.78125 0  0.03125 -0.78125 0  0.0625 -0.78125 0  0.09375 -0.78125 0  0.125 -0.78125 0  0.15625 -0.78125 0  0.1875 -0.78125 0  0.21875 -0.78125 0  0.25 -0.78125 0  0.28125 -0.78125 0  0.3125 -0.78125 0  0.34375 -0.78125 0  0.375 -0.78125 0  0.40625 -0.78125 0  0.4375 -0.78125 0  0.46875 -0.78125 0  0.5 -0.78125 0  0.53125 -0.78125 0  0.5625 -0.78125 0  0.59375 -0.78125 0  0.625 -0.78125 0  0.65625 -0.78125 0  0.6875 -0.78125 0  0.71875 -0.78125 0  0.75 -0.78125 0  0.78125 -0.78125 0  0.8125 -0.78125 0  0.84375 -0.78125 0  0.875 -0.78125 0  0.90625 -0.78125 0  0.9375 -0.78125 0  0.96875 -0.78125 0  1 -0.78125 0  -1 -0.75 0  -0.96875 -0.75 0  -0.9375 -0.75 0  -0.90625 -0.75 0  -0.875 -0.75 0  -0.84375 -0.75 0  -0.8125 -0.75 0  -0.78125 -0.75 0  -0.75 -0.75 0  -0.71875 -0.75 0  -0.6875 -0.75 0  -0.65625 -0.75 0  -0.625 -0.75 0  -0.59375 -0.75 0  -0.5625 -0.75 0  -0.53125 -0.75 0  -0.5 -0.75 0  -0.46875 -0.75 0  -0.4375 -0.75 0  -0.40625 -0.75
[...]
<PointData  Scalars="f_15"> 
<DataArray  type="Float64"  Name="f_15"  format="ascii">-4.2966719344909032e-01  -4.2553922612806278e-01  -4.1331395963413625e-01  -3.9346120410266411e-01  -3.6674388979516703e-01  -3.3418874811723986e-01  -2.9704685490643168e-01  -2.5674555228941981e-01  -2.1483359672454508e-01  -1.7292164115967051e-01  -1.3262033854265864e-01  -9.5478445331850362e-02  -6.2923303653923179e-02  -3.6205989346426194e-02  -1.6353233814954054e-02  -4.1279673210276096e-03  0.0000000000000000e+00  -4.1279673210276096e-03  -1.6353233814954071e-02  -3.6205989346426222e-02  -6.2923303653923221e-02  -9.5478445331850417e-02  -1.3262033854265873e-01  -1.7292164115967060e-01  -2.1483359672454516e-01  -2.5674555228941981e-01  -2.9704685490643162e-01  -3.3418874811723998e-01  -3.6674388979516703e-01  -3.9346120410266411e-01  -4.1331395963413631e-01  -4.2553922612806278e-01  -4.2966719344909032e-01  -4.2553922612806278e-01  -4.1331395963413631e-01  -3.9346120410266411e-01  -3.6674388979516703e-01  -3.3418874811723998e-01  -2.9704685490643162e-01  -2.5674555228941981e-01  -2.1483359672454516e-01  -1.7292164115967060e-01  -1.3262033854265873e-01  -9.5478445331850417e-02  -6.2923303653923221e-02  -3.6205989346426222e-02  -1.6353233814954071e-02  -4.1279673210276096e-03  0.0000000000000000e+00  -4.1279673210276096e-03  -1.6353233814954054e-02  -3.6205989346426194e-02  -6.2923303653923179e-02  -9.5478445331850362e-02  -1.3262033854265864e-01  -1.7292164115967051e-01  -2.1483359672454508e-01  -2.5674555228941981e-01  -2.9704685490643168e-01  -3.3418874811723986e-01  -3.6674388979516703e-01  -3.9346120410266411e-01  -4.1331395963413625e-01  -4.2553922612806278e-01  -4.2966719344909032e-01  -4.2553922612806278e-01  -3.6164747541276365e-01  -3.5641550727151855e-01  -3.3966826711267367e-01  -3.1444716241621079e-01  -2.8081241646945737e-01  -2.4007181298974717e-01  -1.9395340021489987e-01  -1.4436578673683653e-01  -9.3249414686159326e-02  -4.2481083107283928e-02  6.1903675191083704e-03  5.1188899509445232e-02  9.1143741624609267e-02  1.2491358773959738e-01  1.5160473970046631e-01  1.7058428161910058e-01  1.8148876667138039e-01  1.8422863216127416e-01  1.7898836723879313e-01  1.6622231159755535e-01  1.4664558488609719e-01  1.2121895467803606e-01  9.1125027629020500e-02  5.7730928715245933e-02  2.2529981350178856e-02  -1.2946181733525512e-02  -4.7249453249707751e-02  -7.9162287229068415e-02  -1.0784062299473292e-01  -1.3290672839337950e-01  -1.5444977910050489e-01  -1.7292334835236647e-01  -1.8897285542620812e-01  -2.0325451703678862e-01  -2.1630234503326107e-01  -2.2846868460374775e-01  -2.3992907931097157e-01  -2.5072293293139419e-01  -2.6080099869510409e-01  -2.7006232620112819e-01  -2.7837659054954278e-01  -2.8559677158407054e-01  -2.9156978370666226e-01  -2.9615089117575705e-01  -2.9922365277502849e-01  -3.0072328968823553e-01  -3.0065856587621276e-01  -2.9912646255844505e-01  -2.9631466763418585e-01  -2.9248962649560395e-01  -2.8797166896196669e-01  -2.8310553628711854e-01  -2.7823989649951170e-01  -2.7374369045161007e-01  -2.7006671166169782e-01  -2.6788192402707339e-01  -2.6814014852326390e-01  -2.7221489166898577e-01  -2.8113917928609378e-01  -2.9637222196742835e-01  -3.1501632650883199e-01  -3.4306787688214913e-01  -3.5065549278990943e-01  -4.2553922612806278e-01  -4.1331395963413625e-01  -3.4095695833334988e-01  -3.5979804610498956e-01  -3.4840084745354416e-01  -3.2852654311477603e-01  -2.9973175488979298e-01  -2.6389144048687085e-01  -2.2289505149229530e-01  -1.7871465764024949e-01  -1.3329041497364164e-01  -8.8457538995037138e-02  -4.5897449518658734e-02  -7.1030412747985867e-03  2.6649171598184394e-02  5.4323141599861798e-02  7.5143918365409915e-02  8.8613822602649092e-02  9.4522906202368501e-02  9.2952701461306311e-02  8.4272823950339082e-02  6.9130429499128496e-02  4.8432667508068634e-02  2.3321449101840822e-02  -4.8623254519366598e-03  -3.4631631861417232e-02  -6.4433324055140198e-02  -9.2764422103989191e-02  -1.1832295826219315e-01  -1.4016959265836867e-01  -1.5785301184870390e-01  -1.7144705266752497e-01  -1.8147372729099398e-01  -1.8873319211187814e-01  -1.9409951700644676e-01  -1.9834609800360592e-01  -2.0203987320766195e-01  -2.0551020425534913e-01  -2.0887510610166413e-01  -2.1209903626062068e-01  -2.1505912252233184e-01  -2.1760431390483259e-01  -2.1960030522232893e-01  -2.2095900339514513e-01  -2.2165441850506407e-01  -2.2172749424509003e-01  -2.2128227231151248e-01  -2.2047548121540633e-01  -2.1950189161863701e-01  -2.1857798820571081e-01  -2.1792673089225512e-01  -2.1776607696301722e-01  -2.1830364029850105e-01  -2.1974136567313374e-01  -2.2229228427406508e-01  -2.2622150969841395e-01  -2.3189397693907099e-01  -2.3987268435985820e-01  -2.5087098942115055e-01  -2.6587508131353599e-01  -2.8515461306857104e-01  -3.0929019568855071e-01  -3.3342577184133854e-01  -3.6194285870301035e-01  -3.6038639614283124e-01  -4.1331395963413625e-01  -3.9346120410266411e-01  -3.1575486364336636e-01  -3.3458787156537240e-01  -3.2325708884598214e-01  -3.0581299021978886e-01  -2.7912419333636407e-01  -2.4513893681516261e-01  -2.0553586830635548e-01  -1.6221093537098061e-01  -1.1709525765533980e-01  -7.2058312206022046e-02  -2.8835508684310146e-02  1.1021629553572328e-02  4.6180214182826571e-02  7.5551194814371656e-02  9.8308266890518164e-02  1.1390193883684643e-01  1.2206921001050211e-01  1.2283889250608160e-01  1.1653239396560364e-01  1.0375930917309996e-01  8.5405940126121363e-02  6.2612482746404630e-02  3.6731289266219991e-02  9.2559916908831683e-03  -1.8286981103839174e-02  -4.4482710179478552e-02  -6.8187125593559827e-02  -8.8661199992602177e-02  -1.0563497648566249e-01  -1.1927599123544677e-01  -1.3007302800828771e-01  -1.3867723520595238e-01  -1.4575030869836444e-01  -1.5185438214218430e-01  -1.5739507844365666e-01  -1.6261132859647531e-01  -1.6759726458711602e-01  -1.7234054498096252e-01  -1.7676446042718122e-01  -1.8076566296774235e-01  -1.8424370093011450e-01  -1.8712178485706801e-01  -1.8935996452685411e-01  -1.9096247779048087e-01  -1.9198087346689138e-01  -1.9251412756891506e-01  -1.9270656156167060e-01  -1.9274417946342542e-01  -1.9284996761163767e-01  -1.9327920790767170e-01  -1.9431610928168211e-01  -1.9627574160781011e-01  -1.9951205117202334e-01  -2.0444557732886248e-01  -2.1158228705853824e-01  -2.2158325872831541e-01  -2.3511716294343640e-01  -2.5297259345024026e-01  -2.7473752566613852e-01  -3.0042611306646400e-01  -3.2336607769928222e-01  -3.4904176363629791e-01  -3.3931295450003335e-01  -3.9346120410266411e-01  -3.6674388979516703e-01  -2.9427332188016098e-01  -3.0983493701975423e-01  -2.9976155382600222e-01  -2.8382839609391930e-01  -2.5944618324630558e-01  -2.2839102311780002e-01  -1.9203125987698227e-01  -1.5206527718909790e-01  -1.1027237867611811e-01  -6.8414946549621464e-02  -2.8150415435750163e-02  9.0324952077757720e-03  4.1858610915426940e-02  6.9297362776242058e-02  9.0584327487378491e-02  1.0523587786230768e-01  1.1305808273158995e-01  1.1414994633135878e-01  1.0890012055875745e-01  9.7975121831241560e-02  8.2295414777154755e-02  6.2993887705239907e-02  4.1350300804246835e-02  1.8697610401889692e-02  -3.6963532639372612e-03  -2.4755990323156840e-02  -4.3706225219501002e-02  -6.0131919106272302e-02  -7.3970528473676064e-02  -8.5442717997310069e-02  -9.4946032578648698e-02  -1.0294398245505884e-01  -1.0987585722315908e-01  -1.1609893754573360e-01  -1.2186274444686018e-01  -1.2730841815946992e-01  -1.3248444050529110e-01  -1.3737078371581485e-01  -1.4190536412623497e-01  -1.4600875671859750e-01  -1.4960494262419827e-01  -1.5263734798212256e-01  -1.5508032049101361e-01  -1.5694666736108870e-01  -1.5829193779939027e-01  -1.5921612866433713e-01  -1.5986340553388953e-01  -1.6042050709453551e-01  -1.6111455289471083e-01  -1.6221148175347297e-01  -1.6401619506901291e-01  -1.6687812347290731e-01  -1.7120042805431057e-01  -1.7746732818465047e-01  -1.8624582085880204e-01  -1.9824076173656538e-01  -2.1404104005334165e-01  -2.3425386923499431e-01  -2.5780340367831056e-01  -2.8441109245978435e-01  -3.0579635461623456e-01  -3.2970417615827674e-01  -3.1462250482787169e-01  -3.6674388979516703e-01  -3.3418874811723986e-01  -2.7820805859176478e-01  -2.8625118102129898e-01  -2.7452317838997692e-01  -2.5767875991784328e-01  -2.3387515075324905e-01  -2.0427450282033638e-01  -1.6995008660217276e-01  -1.3231605492106538e-01  -9.2911399214980830e-02  -5.3316723986719050e-02  -1.5060726734965833e-02  2.0454293929950209e-02  5.2009763156652317e-02  7.8612609303958858e-02  9.9524444276009205e-02  1.1428073606140317e-01  1.2270158706148664e-01  1.2489440166038802e-01  1.2124733967537842e-01  1.1241090548915837e-01  9.9263757015887591e-02  8.2858467126800561e-02  6.4344940781371679e-02  4.4874398773864309e-02  2.5494867683232659e-02  7.0567137566473889e-03  -9.8509493895155911e-03  -2.4918539095493509e-02  -3.8087900481882327e-02  -4.9490478565448859e-02  -5.9371721653417336e-02  -6.8020216891328020e-02  -7.5713051083265315e-02  -8.2681032942980806e-02  -8.9092103261101299e-02  -9.5048830656842540e-02  -1.0059560173099026e-01  -1.0573156792859804e-01  -1.1042622486064650e-01  -1.1463522555511531e-01  -1.1831488227100004e-01  -1.2143446742346696e-01  -1.2398605470221108e-01  -1.2599194461391916e-01  -1.2750998100763861e-01  -1.2863708071891403e-01  -1.2951139644277421e-01  -1.3031354870446790e-01  -1.3126750211614405e-01  -1.3264212641025297e-01  -1.3475423252843252e-01  -1.3797687763666133e-01  -1.4274915463348406e-01  -1.4960422872764548e-01  -1.5915376512633264e-01  -1.7213315348752856e-01  -1.8902883041034754e-01  -2.1027954886863767e-01  -2.3414475296227674e-01  -2.6033459911505596e-01  -2.7901982666835023e-01  -3.0121788608877381e-01  -2.8025823883438816e-01  -3.3418874811723986e-01  -2.9704685490643168e-01  -2.6814110491980048e-01  -2.6665118341294547e-01  -2.5247015482639323e-01  -2.3389857388123800e-01  -2.0978002382029173e-01  -1.8093509172376790e-01  -1.4823538735237488e-01  -1.1282158515186393e-01  -7.5978406647442043e-02  -3.9060271722850579e-02  -3.4056395327090217e-03  2.9737004987453113e-02  5.9271008622326787e-02  8.4299469399418889e-02  1.0415975797287154e-01  1.1844584368520700e-01  1.2701930653699353e-01  1.3000904794040172e-01  1.2779859379003605e-01  1.2099904857121466e-01  1.1040567802438915e-01  9.6937524868225114e-02  8.1562727936494009e-02  6.5216924821305824e-02  4.8726492207674700e-02  3.2749908372430303e-02  1.7747408629937986e-02  3.9819279282594091e-03  -8.4537715340013038e-03  -1.9594327533043233e-02  -2.9554783797716238e-02  -3.8488127403788014e-02  -4.6552021378253552e-02  -5.3886038358732596e-02  -6.0598628566362139e-02  -6.6762252175538106e-02  -7.2414813433102770e-02  -7.7565599339703528e-02  -8.2203976773090631e-02  -8.6309379983195308e-02  -8.9861369854618789e-02  -9.2848983327149109e-02  -9.5278884631551319e-02  -9.7182182745534709e-02  -9.8619910546371592e-02  -9.9687360638265624e-02  -1.0051749277688070e-01  -1.0128383866971877e-01  -1.0220335452720659e-01  -1.0354033411854975e-01  -1.0561190048542896e-01  -1.0879923508924669e-01  -1.1355842782718081e-01  -1.2045066034567145e-01  -1.3010871811662925e-01  -1.4327851954213286e-01  -1.6032160128315764e-01  -1.8154434556087720e-01  -2.0458773111729286e-01  -2.2948250115045332e-01  -2.4486426789685520e-01  -2.6579279758340940e-01  -2.3898189954790908e-01  -2.9704685490643168e-01  -2.5674555228941981e-01  -2.6338817714387958e-01  -2.5151891297793350e-01  -2.3455340729127427e-01  -2.1371233641589349e-01  -1.8863051779725371e-01  -1.5988450340322427e-01  -1.2816935466854817e-01  -9.4404165491768610e-02  -5.9646950733280246e-02  -2.5030041590194504e-02  8.3099700736047489e-03  3.9298166514857923e-02  6.6980169025441225e-02  9.0570506235223044e-02  1.0948904895042921e-01  1.2338491223066954e-01  1.3214755352664434e-01  1.3590464598582877e-01  1.3500603803392053e-01  1.2999322016794357e-01  1.2155460068646484e-01  1.1046883359679964e-01  9.7541116268137704e-02  8.3539974507955916e-02  6.9143214457298180e-02  5.4900514836526720e-02  4.1216547360676654e-02  2.8353891581953360e-02  1.6451133995578394e-02  5.5497210739347798e-03  -4.3765648731026634e-03  -1.3394023214972604e-02  -2.1585979290165071e-02  -2.9035377329895966e-02  -3.5813169456334934e-02  -4.1972086553342211e-02  -4.7545040395174182e-02  -5.2547203524862487e-02  -5.6980720604034689e-02  -6.0841023943788000e-02  -6.4123862891100905e-02  -6.6832361766978099e-02  -6.8983654286327883e-02  -7.0614854888329734e-02  -7.1788302440744134e-02  -7.2596140983709687e-02  -7.3164428698045000e-02  -7.3657117104639444e-02  -7.4280367989468438e-02  -7.5288302804761897e-02  -7.6990570101372724e-02  -7.9766187205499231e-02  -8.4075230506504575e-02  -9.0491510415019377e-02  -9.9650535012681896e-02  -1.1229491733245955e-01  -1.2865146806354477e-01  -1.4895123478826511e-01  -1.7028343725683767e-01  -1.9330585679830845e-01  -2.0504062345736537e-01  -2.2520662732500260e-01  -1.9231403698422900e-01  -2.5674555228941981e-01  -2.1483359672454508e-01  -2.6265180675506161e-01  -2.4034453930639352e-01  -2.2084948799274851e-01  -1.9779799101518669e-01  -1.7165259505188873e-01  -1.4278110207422970e-01  -1.1176023348434287e-01  -7.9345479359846968e-02  -4.6410134948523064e-02  -1.3892958468111246e-02  1.7258764661267519e-02  4.6145047474357964e-02  7.1964461525181544e-02  9.4057665665256140e-02  1.1194090756166478e-01  1.2532790215303727e-01  1.3413910324070297e-01  1.3849777884022241e-01  1.3871281613816608e-01  1.3524890255521194e-01  1.2868598101813769e-01  1.1967138123712011e-01  1.0886957272844840e-01  9.6915275697734643e-02  8.4375343577356779e-02  7.1723150196912860e-02  5.9326752215229810e-02  4.7449605347502109e-02  3.6260879263547041e-02  2.5851749008642601e-02  1.6254255875877397e-02  7.4600726059779257e-03  -5.6268672387876895e-04  -7.8557112761534331e-03  -1.4460353988876838e-02  -2.0411184630427771e-02  -2.5733008429063568e-02  -3.0440829798903654e-02  -3.4542126412328795e-02  -3.8040713705552016e-02  -4.0941567944944128e-02  -4.3256050772337580e-02  -4.5007171118745436e-02  -4.6234627759872492e-02  -4.6999560776162463e-02  -4.7389029148446005e-02  -4.7520388034437311e-02  -4.7545891367289650e-02  -4.7657988839284002e-02  -4.8096447040802882e-02  -4.9157537497595466e-02  -5.1210090821442636e-02  -5.4707667479190099e-02  -6.0223961803321166e-02  -6.8382763084612649e-02  -7.9915929597809243e-02  -9.4919842754112888e-02  -1.1362079031600272e-01  -1.3263177127606995e-01  -1.5349007319176991e-01  -1.6147276652203471e-01  -1.8141499591059010e-01  -1.4223270612131092e-01  -2.1483359672454508e-01  -1.7292164115967051e-01  -2.6463441970722723e-01  -2.3228805368033167e-01  -2.1077018549649831e-01  -1.8577453301364311e-01  -1.5867283718887557e-01  -1.2964239955137388e-01  -9.9174040198649158e-02  -6.7893097709803507e-02  -3.6523427795968150e-02  -5.8416142593211359e-03  2.3370255690544645e-02  5.0370573954606646e-02  7.4500695522354846e-02  9.5221367009307042e-02  1.1214086515956553e-01  1.2503312423647844e-01  1.3384470693841050e-01  1.3869016516995583e-01  1.3983608657954147e-01  1.3767509165530809e-01  1.3269206188075233e-01  1.2542590316933908e-01  1.1643077394863073e-01  1.0624079105706523e-01  9.5341532943710339e-02  8.4150416981522383e-02  7.3006503203953174e-02  6.2168918185121713e-02  5.1822161556391057e-02  4.2086139367914610e-02  3.3028796131058406e-02  2.4679486716646468e-02  1.7041649527419111e-02  1.0103747678352804e-02  3.8478715443861348e-03  -1.7442752851056927e-03  -6.6879588644271010e-03  -1.0994319218490358e-02  -1.4671176605663583e-02  -1.7725284208712683e-02  -2.0165550836683609e-02  -2.2006851173531822e-02  -2.3274100929864781e-02  -2.4006422455706389e-02  -2.4261300269877179e-02  -2.4118777351098082e-02  -2.3685833866052202e-02  -2.3101309340339375e-02  -2.2541817857941782e-02  -2.2229849081413962e-02  -2.2444149949484005e-02  -2.3537520076179225e-02  -2.5949192510841757e-02  -3.0243123640898404e-02  -3.7022002814366989e-02  -4.7006110300879297e-02  -6.0178542853675514e-02  -7.6833239880404816e-02  -9.3180106222795239e-02  -1.1181388251250453e-01  -1.1611237155683515e-01  -1.3634542754048823e-01  -9.0674009803632064e-02  -1.7292164115967051e-01  -1.3262033854265864e-01  -2.6834113184055330e-01  -2.2658399947837674e-01  -2.0359990969469804e-01  -1.7698620757306324e-01  -1.4912153200537501e-01  -1.1999564821595766e-01  -9.0036477783154795e-02  -5.9763761863223609e-02  -2.9779062919052912e-02  -7.2338990777587959e-04  2.6761879433418533e-02  5.2072714033887767e-02  7.4676862073266931e-02  9.4143071724627075e-02  1.1016334051177308e-01  1.2256678321427615e-01  1.3132423973630283e-01  1.3654338670770605e-01  1.3845488621503749e-01  1.3739090168298229e-01  1.3375808141586326e-01  1.2800767594428880e-01  1.2060571144996318e-01  1.1200596038718207e-01  1.0262788537735656e-01  9.2840871989027365e-02  8.2955136130749868e-02  7.3218861184714226e-02  6.3820527129774055e-02  5.4895072649673790e-02  4.6532449146663567e-02  3.8787229797550206e-02  3.1688141948649114e-02  2.5246665787883003e-02  1.9464118704624424e-02  1.4336923713790832e-02  9.8599861505975512e-03  6.0282965043221360e-03  2.8369939338225712e-03  2.8020226542104670e-04  -1.6510523243796912e-03  -2.9715470816887059e-03  -3.7049768232503269e-03  -3.8873195072552514e-03  -3.5704081525191338e-03  -2.8257504813032600e-03  -1.7487722217495345e-03  -4.6383663509552491e-04  8.6947612510375819e-04  2.0476361219460217e-03  2.8119332518174267e-03  2.8294186335802987e-03  1.6803863076358457e-03  -1.1828710075554587e-03  -6.3376314345072625e-03  -1.4496655667472191e-02  -2.5555885205094480e-02  -3.9938905794919349e-02  -5.3517339002582792e-02  -7.0038718614995180e-02  -7.0844095909316132e-02  -9.1828057423066711e-02  -3.9509766519711519e-02  -1.3262033854265864e-01  -9.5478445331850362e-02  -2.7310542934491688e-01  -2.2266354068983421e-01  -1.9869826116325298e-01  -1.7075532381199024e-01  -1.4230302948982107e-01  -1.1314609125244264e-01  -8.3668873348553566e-02  -5.4302197596580462e-02  -2.5544529783713760e-02  2.0780361642427714e-03  2.8043784638700556e-02  5.1866179966004261e-02  7.3121366252231604e-02  9.1471054081282949e-02  1.0667952588812528e-01  1.1862377367234223e-01  1.2729620762771995e-01  1.3279991295116853e-01  1.3533703885661097e-01  1.3519149798461774e-01  1.3270767357026417e-01  1.2826716031005150e-01  1.2226565571486213e-01  1.1509193514647016e-01  1.0711042243340817e-01  9.8648300128648322e-02  8.9987485799797665e-02  8.1361255787157361e-02  7.2954868530663922e-02  6.4909286674224340e-02  5.7326984235724403e-02  5.0278857802379111e-02  4.3811368729728191e-02  3.7953227523941549e-02  3.2721121365070369e-02  2.8124193596863092e-02  2.4167152921113697e-02  2.0852043288001876e-02  1.8178801657045881e-02  1.6144795750637049e-02  1.4743551261364915e-02  1.3962865611782631e-02  1.3782466586889792e-02  1.4171313343275859e-02  1.5084563519012046e-02  1.6460134750234726e-02  1.8214674860964418e-02  2.0238567199022412e-02  2.2389478470053046e-02  2.4483243735283378e-02  2.6282072129337822e-02  2.7474631853245200e-02  2.7663282855663541e-02  2.6319990238003452e-02  2.2892663854072150e-02  1.6669689742171912e-02  7.8120552089436246e-03  -4.2750640790175124e-03  -1.5181232104929431e-02  -2.9820740260662254e-02  -2.7413490776478058e-02  -4.9542184133984216e-02  9.5202283881008088e-03  -9.5478445331850362e-02  -6.2923303653923179e-02  -2.7847415397323011e-01  -2.2012977168528652e-01  -1.9554357132301767e-01  -1.6649467080973004e-01  -1.3758566499712269e-01  -1.0843895184995957e-01  -7.9410730657787754e-02  -5.0855509635583808e-02  -2.3183661284801108e-02  3.1771940774086935e-03  2.7807641226613389e-02  5.0321357686584071e-02  7.0386794318245308e-02  8.7744835227276052e-02  1.0222152646310356e-01  1.1373523752590209e-01  1.2229795503269912e-01  1.2801083080860517e-01  1.3105453658460042e-01  1.3167541238604741e-01  1.3016871375653113e-01  1.2686047470215431e-01  1.2208951786038805e-01  1.1619099949180864e-01  1.0948257754468124e-01  1.022538983618088