<?xml version="1.0"?>
<VTKFile type="UnstructuredGrid"  version="0.1"  >
<UnstructuredGrid>
<Piece  NumberOfPoints="4225" NumberOfCells="8192">
<Points>
<DataArray  type="Float64"  NumberOfComponents="3"  format="ascii">-1 -1 0  -0.96875 -1 0  -0.9375 -1 0  -0.90625 -1 0  -0.875 -1 0  -0.84375 -1 0  -0.8125 -1 0  -0.78125 -1 0  -0.75 -1 0  -0.71875 -1 0  -0.6875 -1 0  -0.65625 -1 0  -0.625 -1 0  -0.59375 -1 0  -0.5625 -1 0  -0.53125 -1 0  -0.5 -1 0  -0.46875 -1 0  -0.4375 -1 0  -0.40625 -1 0  -0.375 -1 0  -0.34375 -1 0  -0.3125 -1 0  -0.28125 -1 0  -0.25 -1 0  -0.21875 -1 0  -0.1875 -1 0  -0.15625 -1 0  -0.125 -1 0  -0.09375 -1 0  -0.0625 -1 0  -0.03125 -1 0  0 -1 0  0.03125 -1 0  0.0625 -1 0  0.09375 -1 0  0.125 -1 0  0.15625 -1 0  0.1875 -1 0  0.21875 -1 0  0.25 -1 0  0.28125 -1 0  0.3125 -1 0  0.34375 -1 0  0.375 -1 0  0.40625 -1 0  0.4375 -1 0  0.46875 -1 0  0.5 -1 0  0.53125 -1 0  0.5625 -1 0  0.59375 -1 0  0.625 -1 0  0.65625 -1 0  0.6875 -1 0  0.71875 -1 0  0.75 -1 0  0.78125 -1 0  0.8125 -1 0  0.84375 -1 0  0.875 -1 0  0.90625 -1 0  0.9375 -1 0  0.96875 -1 0  1 -1 0  -1 -0.96875 0  -0.96875 -0.96875 0  -0.9375 -0.96875 0  -0.90625 -0.96875 0  -0.875 -0.96875 0  -0.84375 -0.96875 0  -0.8125 -0.96875 0  -0.78125 -0.96875 0  -0.75 -0.96875 0  -0.71875 -0.96875 0  -0.6875 -0.96875 0  -0.65625 -0.96875 0  -0.625 -0.96875 0  -0.59375 -0.96875 0  -0.5625 -0.96875 0  -0.53125 -0.96875 0  -0.5 -0.96875 0  -0.46875 -0.96875 0  -0.4375 -0.96875 0  -0.40625 -0.96875 0  -0.375 -0.96875 0  -0.34375 -0.96875 0  -0.3125 -0.96875 0  -0.28125 -0.96875 0  -0.25 -0.96875 0  -0.21875 -0.96875 0  -0.1875 -0.96875 0  -0.15625 -0.96875 0  -0.125 -0.96875 0  -0.09375 -0.96875 0  -0.0625 -0.96875 0  -0.03125 -0.96875 0  0 -0.96875 0  0.03125 -0.96875 0  0.0625 -0.96875 0  0.09375 -0.96875 0  0.125 -0.96875 0  0.15625 -0.96875 0  0.1875 -0.96875 0  0.21875 -0.96875 0  0.25 -0.96875 0  0.28125 -0.96875 0  0.3125 -0.96875 0  0.34375 -0.96875 0  0.375 -0.96875 0  0.40625 -0.96875 0  0.4375 -0.96875 0  0.46875 -0.96875 0  0.5 -0.96875 0  0.53125 -0.96875 0  0.5625 -0.96875 0  0.59375 -0.96875 0  0.625 -0.96875 0  0.65625 -0.96875 0  0.6875 -0.96875 0  0.71875 -0.96875 0  0.75 -0.96875 0  0.78125 -0.96875 0  0.8125 -0.96875 0  0.84375 -0.96875 0  0.875 -0.96875 0  0.90625 -0.96875 0  0.9375 -0.96875 0  0.96875 -0.96875 0  1 -0.96875 0  -1 -0.9375 0  -0.96875 -0.9375 0  -0.9375 -0.9375 0  -0.90625 -0.9375 0  -0.875 -0.9375 0  -0.84375 -0.9375 0  -0.8125 -0.9375 0  -0.78125 -0.9375 0  -0.75 -0.9375 0  -0.71875 -0.9375 0  -0.6875 -0.9375 0  -0.65625 -0.9375 0  -0.625 -0.9375 0  -0.59375 -0.9375 0  -0.5625 -0.9375 0  -0.53125 -0.9375 0  -0.5 -0.9375 0  -0.46875 -0.9375 0  -0.4375 -0.9375 0  -0.40625 -0.9375 0  -0.375 -0.9375 0  -0.34375 -0.9375 0  -0.3125 -0.9375 0  -0.28125 -0.9375 0  -0.25 -0.9375 0  -0.21875 -0.9375 0  -0.1875 -0.9375 0  -0.15625 -0.9375 0  -0.125 -0.9375 0  -0.09375 -0.9375 0  -0.0625 -0.9375 0  -0.03125 -0.9375 0  0 -0.9375 0  0.03125 -0.9375 0  0.0625 -0.9375 0  0.09375 -0.9375 0  0.125 -0.9375 0  0.15625 -0.9375 0  0.1875 -0.9375 0  0.21875 -0.9375 0  0.25 -0.9375 0  0.28125 -0.9375 0  0.3125 -0.9375 0  0.34375 -0.9375 0  0.375 -0.9375 0  0.40625 -0.9375 0  0.4375 -0.9375 0  0.46875 -0.9375 0  0.5 -0.9375 0  0.53125 -0.9375 0  0.5625 -0.9375 0  0.59375 -0.9375 0  0.625 -0.9375 0  0.65625 -0.9375 0  0.6875 -0.9375 0  0.71875 -0.9375 0  0.75 -0.9375 0  0.78125 -0.9375 0  0.8125 -0.9375 0  0.84375 -0.9375 0  0.875 -0.9375 0  0.90625 -0.9375 0  0.9375 -0.9375 0  0.96875 -0.9375 0  1 -0.9375 0  -1 -0.90625 0  -0.96875 -0.90625 0  -0.9375 -0.90625 0  -0.90625 -0.90625 0  -0.875 -0.90625 0  -0.84375 -0.90625 0  -0.8125 -0.90625 0  -0.78125 -0.90625 0  -0.75 -0.90625 0  -0.71875 -0.90625 0  -0.6875 -0.90625 0  -0.65625 -0.90625 0  -0.625 -0.90625 0  -0.59375 -0.90625 0  -0.5625 -0.90625 0  -0.53125 -0.90625 0  -0.5 -0.90625 0  -0.46875 -0.90625 0  -0.4375 -0.90625 0  -0.40625 -0.90625 0  -0.375 -0.90625 0  -0.34375 -0.90625 0  -0.3125 -0.90625 0  -0.28125 -0.90625 0  -0.25 -0.90625 0  -0.21875 -0.90625 0  -0.1875 -0.90625 0  -0.15625 -0.90625 0  -0.125 -0.90625 0  -0.09375 -0.90625 0  -0.0625 -0.90625 0  -0.03125 -0.90625 0  0 -0.90625 0  0.03125 -0.90625 0  0.0625 -0.90625 0  0.09375 -0.90625 0  0.125 -0.90625 0  0.15625 -0.90625 0  0.1875 -0.90625 0  0.21875 -0.90625 0  0.25 -0.90625 0  0.28125 -0.90625 0  0.3125 -0.90625 0  0.34375 -0.90625 0  0.375 -0.90625 0  0.40625 -0.90625 0  0.4375 -0.90625 0  0.46875 -0.90625 0  0.5 -0.90625 0  0.53125 -0.90625 0  0.5625 -0.90625 0  0.59375 -0.90625 0  0.625 -0.90625 0  0.65625 -0.90625 0  0.6875 -0.90625 0  0.71875 -0.90625 0  0.75 -0.90625 0  0.78125 -0.90625 0  0.8125 -0.90625 0  0.84375 -0.90625 0  0.875 -0.90625 0  0.90625 -0.90625 0  0.9375 -0.90625 0  0.96875 -0.90625 0  1 -0.90625 0  -1 -0.875 0  -0.96875 -0.875 0  -0.9375 -0.875 0  -0.90625 -0.875 0  -0.875 -0.875 0  -0.84375 -0.875 0  -0.8125 -0.875 0  -0.78125 -0.875 0  -0.75 -0.875 0  -0.71875 -0.875 0  -0.6875 -0.875 0  -0.65625 -0.875 0  -0.625 -0.875 0  -0.59375 -0.875 0  -0.5625 -0.875 0  -0.53125 -0.875 0  -0.5 -0.875 0  -0.46875 -0.875 0  -0.4375 -0.875 0  -0.40625 -0.875 0  -0.375 -0.875 0  -0.34375 -0.875 0  -0.3125 -0.875 0  -0.28125 -0.875 0  -0.25 -0.875 0  -0.21875 -0.875 0  -0.1875 -0.875 0  -0.15625 -0.875 0  -0.125 -0.875 0  -0.09375 -0.875 0  -0.0625 -0.875 0  -0.03125 -0.875 0  0 -0.875 0  0.03125 -0.875 0  0.0625 -0.875 0  0.09375 -0.875 0  0.125 -0.875 0  0.15625 -0.875 0  0.1875 -0.875 0  0.21875 -0.875 0  0.25 -0.875 0  0.28125 -0.875 0  0.3125 -0.875 0  0.34375 -0.875 0  0.375 -0.875 0  0.40625 -0.875 0  0.4375 -0.875 0  0.46875 -0.875 0  0.5 -0.875 0  0.53125 -0.875 0  0.5625 -0.875 0  0.59375 -0.875 0  0.625 -0.875 0  0.65625 -0.875 0  0.6875 -0.875 0  0.71875 -0.875 0  0.75 -0.875 0  0.78125 -0.875 0  0.8125 -0.875 0  0.84375 -0.875 0  0.875 -0.875 0  0.90625 -0.875 0  0.9375 -0.875 0  0.96875 -0.875 0  1 -0.875 0  -1 -0.84375 0  -0.96875 -0.84375 0  -0.9375 -0.84375 0  -0.90625 -0.84375 0  -0.875 -0.84375 0  -0.84375 -0.84375 0  -0.8125 -0.84375 0  -0.78125 -0.84375 0  -0.75 -0.84375 0  -0.71875 -0.84375 0  -0.6875 -0.84375 0  -0.65625 -0.84375 0  -0.625 -0.84375 0  -0.59375 -0.84375 0  -0.5625 -0.84375 0  -0.53125 -0.84375 0  -0.5 -0.84375 0  -0.46875 -0.84375 0  -0.4375 -0.84375 0  -0.40625 -0.84375 0  -0.375 -0.84375 0  -0.34375 -0.84375 0  -0.3125 -0.84375 0  -0.28125 -0.84375 0  -0.25 -0.84375 0  -0.21875 -0.84375 0  -0.1875 -0.84375 0  -0.15625 -0.84375 0  -0.125 -0.84375 0  -0.09375 -0.84375 0  -0.0625 -0.84375 0  -0.03125 -0.84375 0  0 -0.84375 0  0.03125 -0.84375 0  0.0625 -0.84375 0  0.09375 -0.84375 0  0.125 -0.84375 0  0.15625 -0.84375 0  0.1875 -0.84375 0  0.21875 -0.84375 0  0.25 -0.84375 0  0.28125 -0.84375 0  0.3125 -0.84375 0  0.34375 -0.84375 0  0.375 -0.84375 0  0.40625 -0.84375 0  0.4375 -0.84375 0  0.46875 -0.84375 0  0.5 -0.84375 0  0.53125 -0.84375 0  0.5625 -0.84375 0  0.59375 -0.84375 0  0.625 -0.84375 0  0.65625 -0.84375 0  0.6875 -0.84375 0  0.71875 -0.84375 0  0.75 -0.84375 0  0.78125 -0.84375 0  0.8125 -0.84375 0  0.84375 -0.84375 0  0.875 -0.84375 0  0.90625 -0.84375 0  0.9375 -0.84375 0  0.96875 -0.84375 0  1 -0.84375 0  -1 -0.8125 0  -0.96875 -0.8125 0  -0.9375 -0.8125 0  -0.90625 -0.8125 0  -0.875 -0.8125 0  -0.84375 -0.8125 0  -0.8125 -0.8125 0  -0.78125 -0.8125 0  -0.75 -0.8125 0  -0.71875 -0.8125 0  -0.6875 -0.8125 0  -0.65625 -0.8125 0  -0.625 -0.8125 0  -0.59375 -0.8125 0  -0.5625 -0.8125 0  -0.53125 -0.8125 0  -0.5 -0.8125 0  -0.46875 -0.8125 0  -0.4375 -0.8125 0  -0.40625 -0.8125 0  -0.375 -0.8125 0  -0.34375 -0.8125 0  -0.3125 -0.8125 0  -0.28125 -0.8125 0  -0.25 -0.8125 0  -0.21875 -0.8125 0  -0.1875 -0.8125 0  -0.15625 -0.8125 0  -0.125 -0.8125 0  -0.09375 -0.8125 0  -0.0625 -0.8125 0  -0.03125 -0.8125 0  0 -0.8125 0  0.03125 -0.8125 0  0.0625 -0.8125 0  0.09375 -0.8125 0  0.125 -0.8125 0  0.15625 -0.8125 0  0.1875 -0.8125 0  0.21875 -0.8125 0  0.25 -0.8125 0  0.28125 -0.8125 0  0.3125 -0.8125 0  0.34375 -0.8125 0  0.375 -0.8125 0  0.40625 -0.8125 0  0.4375 -0.8125 0  0.46875 -0.8125 0  0.5 -0.8125 0  0.53125 -0.8125 0  0.5625 -0.8125 0  0.59375 -0.8125 0  0.625 -0.8125 0  0.65625 -0.8125 0  0.6875 -0.8125 0  0.71875 -0.8125 0  0.75 -0.8125 0  0.78125 -0.8125 0  0.8125 -0.8125 0  0.84375 -0.8125 0  0.875 -0.8125 0  0.90625 -0.8125 0  0.9375 -0.8125 0  0.96875 -0.8125 0  1 -0.8125 0  -1 -0.78125 0  -0.96875 -0.78125 0  -0.9375 -0.78125 0  -0.90625 -0.78125 0  -0.875 -0.78125 0  -0.84375 -0.78125 0  -0.8125 -0.78125 0  -0.78125 -0.78125 0  -0.75 -0.78125 0  -0.71875 -0.78125 0  -0.6875 -0.78125 0  -0.65625 -0.78125 0  -0.625 -0.78125 0  -0.59375 -0.78125 0  -0.5625 -0.78125 0  -0.53125 -0.78125 0  -0.5 -0.78125 0  -0.46875 -0.78125 0  -0.4375 -0.78125 0  -0.40625 -0.78125 0  -0.375 -0.78125 0  -0.34375 -0.78125 0  -0.3125 -0.78125 0  -0.28125 -0.78125 0  -0.25 -0.78125 0  -0.21875 -0.78125 0  -0.1875 -0.78125 0  -0.15625 -0.78125 0  -0.125 -0.78125 0  -0.09375 -0.78125 0  -0.0625 -0.78125 0  -0.03125 -0.78125 0  0 -0.78125 0  0.03125 -0.78125 0  0.0625 -0.78125 0  0.09375 -0.78125 0  0.125 -0.78125 0  0.15625 -0.78125 0  0.1875 -0.78125 0  0.21875 -0.78125 0  0.25 -0.78125 0  0.28125 -0.78125 0  0.3125 -0.78125 0  0.34375 -0.78125 0  0.375 -0.78125 0  0.40625 -0.78125 0  0.4375 -0.78125 0  0.46875 -0.78125 0  0.5 -0.78125 0  0.53125 -0.78125 0  0.5625 -0.78125 0  0.59375 -0.78125 0  0.625 -0.78125 0  0.65625 -0.78125 0  0.6875 -0.78125 0  0.71875 -0.78125 0  0.75 -0.78125 0  0.78125 -0.78125 0  0.8125 -0.78125 0  0.84375 -0.78125 0  0.875 -0.78125 0  0.90625 -0.78125 0  0.9375 -0.78125 0  0.96875 -0.78125 0  1 -0.78125 0  -1 -0.75 0  -0.96875 -0.75 0  -0.9375 -0.75 0  -0.90625 -0.75 0  -0.875 -0.75 0  -0.84375 -0.75 0  -0.8125 -0.75 0  -0.78125 -0.75 0  -0.75 -0.75 0  -0.71875 -0.75 0  -0.6875 -0.75 0  -0.65625 -0.75 0  -0.625 -0.75 0  -0.59375 -0.75 0  -0.5625 -0.75 0  -0.53125 -0.75 0  -0.5 -0.75 0  -0.46875 -0.75 0  -0.4375 -0.75 0  -0.40625 -0.75
[...]
<PointData  Scalars="f_15"> 
<DataArray  type="Float64"  Name="f_15"  format="ascii">-4.8197540984566578e-01  -4.7734489866930446e-01  -4.6363131308790756e-01  -4.4136165850470094e-01  -4.1139174525635069e-01  -3.7487330030167015e-01  -3.3320970700048808e-01  -2.8800207387815613e-01  -2.4098770492283283e-01  -1.9397333596750962e-01  -1.4876570284517765e-01  -1.0710210954399547e-01  -7.0583664589314976e-02  -4.0613751340964802e-02  -1.8344096757758100e-02  -4.6305111763612792e-03  0.0000000000000000e+00  -4.6305111763612792e-03  -1.8344096757758128e-02  -4.0613751340964829e-02  -7.0583664589315018e-02  -1.0710210954399553e-01  -1.4876570284517773e-01  -1.9397333596750971e-01  -2.4098770492283289e-01  -2.8800207387815613e-01  -3.3320970700048802e-01  -3.7487330030167021e-01  -4.1139174525635069e-01  -4.4136165850470094e-01  -4.6363131308790761e-01  -4.7734489866930446e-01  -4.8197540984566578e-01  -4.7734489866930446e-01  -4.6363131308790761e-01  -4.4136165850470094e-01  -4.1139174525635069e-01  -3.7487330030167021e-01  -3.3320970700048802e-01  -2.8800207387815613e-01  -2.4098770492283289e-01  -1.9397333596750971e-01  -1.4876570284517773e-01  -1.0710210954399553e-01  -7.0583664589315018e-02  -4.0613751340964829e-02  -1.8344096757758128e-02  -4.6305111763612792e-03  0.0000000000000000e+00  -4.6305111763612792e-03  -1.8344096757758100e-02  -4.0613751340964802e-02  -7.0583664589314976e-02  -1.0710210954399547e-01  -1.4876570284517765e-01  -1.9397333596750962e-01  -2.4098770492283283e-01  -2.8800207387815613e-01  -3.3320970700048808e-01  -3.7487330030167015e-01  -4.1139174525635069e-01  -4.4136165850470094e-01  -4.6363131308790756e-01  -4.7734489866930446e-01  -4.8197540984566578e-01  -4.7734489866930446e-01  -3.6438356183575782e-01  -2.8956240383371801e-01  -1.9307547299803759e-01  -8.7330063679230102e-02  2.3404892017296678e-02  1.3594907497841494e-01  2.4770151958457851e-01  3.5629910846827140e-01  4.5949251105570005e-01  5.5511863174302922e-01  6.4112538768282612e-01  7.1562394015594255e-01  7.7695266648188932e-01  8.2374214757952169e-01  8.5497324809907826e-01  8.7002270688293637e-01  8.6869215444953640e-01  8.5121825162657927e-01  8.1826279941266045e-01  7.7088327804796508e-01  7.1048534852379508e-01  6.3876038008653024e-01  5.5761195634201099e-01  4.6907635930107172e-01  3.7524214729376776e-01  2.7817387264967081e-01  1.7984395765962943e-01  8.2075594214832223e-02  -1.3501961623604713e-02  -1.0548546499422007e-01  -1.9271769041407599e-01  -2.7429623986726653e-01  -3.4957191572855195e-01  -4.1813735432774118e-01  -4.7980650790533758e-01  -5.3458599694726117e-01  -5.8263976258935113e-01  -6.2424935932616532e-01  -6.5977264813946723e-01  -6.8960421993629095e-01  -7.1414051964515624e-01  -7.3375233078533764e-01  -7.4876605200568758e-01  -7.5945426705730201e-01  -7.6603463940600713e-01  -7.6867541615853141e-01  -7.6750489475426842e-01  -7.6262228581884139e-01  -7.5410742399017328e-01  -7.4202783881727230e-01  -7.2644249654860582e-01  -7.0740343734904076e-01  -6.8495647872301779e-01  -6.5914891737272530e-01  -6.3003363717263050e-01  -5.9773465582700869e-01  -5.6237556666782762e-01  -5.2461285389628898e-01  -4.8436624403800077e-01  -4.4584289569805824e-01  -4.0388920201850897e-01  -3.8895163626438456e-01  -3.4371271461088582e-01  -4.7734489866930446e-01  -4.6363131308790756e-01  -3.7269120872738837e-01  -3.2746213148106712e-01  -2.5879881576231090e-01  -1.8555235663586653e-01  -1.0849378484890410e-01  -2.9975594326487675e-02  4.8029990284517654e-02  1.2374536641549334e-01  1.9553956174776549e-01  2.6190588413127885e-01  3.2146578597317238e-01  3.7298877399141356e-01  4.1542089763290957e-01  4.4791566358596813e-01  4.6986258997572478e-01  4.8090929562194967e-01  4.8097435265609223e-01  4.7024891717168210e-01  4.4918666799819845e-01  4.1848246016623941e-01  3.7904150205019299e-01  3.3194139510505377e-01  2.7839011057373481e-01  2.1968273739593105e-01  1.5715968130886943e-01  9.2168045417878833e-02  2.6027232217504855e-02  -4.0001107715145853e-02  -1.0473908198572705e-01  -1.6711506173103782e-01  -2.2618307133374330e-01  -2.8113910203774506e-01  -3.3133409101894479e-01  -3.7628298907728114e-01  -4.1566939270718795e-01  -4.4934519548537377e-01  -4.7732511330083183e-01  -4.9977597609640489e-01  -5.1700107340970658e-01  -5.2941970530683413e-01  -5.3754243942364122e-01  -5.4194242477924048e-01  -5.4322362442686156e-01  -5.4198692916145041e-01  -5.3879587827240227e-01  -5.3414389802857709e-01  -5.2842561632097285e-01  -5.2191462842581038e-01  -5.1475022829088057e-01  -5.0693485131117633e-01  -4.9834351451737957e-01  -4.8874577475622427e-01  -4.7783901761128256e-01  -4.6529673859156512e-01  -4.5081439648941263e-01  -4.3421860616169944e-01  -4.1540632199753641e-01  -3.9496746169275460e-01  -3.7259749215571281e-01  -3.5316807898338948e-01  -3.2826059815315450e-01  -3.3614700805407982e-01  -2.7669081882288460e-01  -4.6363131308790756e-01  -4.4136165850470094e-01  -3.9725726682491597e-01  -3.3604125488586828e-01  -2.6410120070034115e-01  -1.8903960617435905e-01  -1.1070174828615288e-01  -3.1297664504351737e-02  4.7498398381028484e-02  1.2407714900333833e-01  1.9690859318948403e-01  2.6453717059308118e-01  3.2559684356839069e-01  3.7883960932955862e-01  4.2317230039452508e-01  4.5769618540386003e-01  4.8174410581369043e-01  4.9491058709946245e-01  4.9707118969553576e-01  4.8838870320941630e-01  4.6930511988581536e-01  4.4051987392816283e-01  4.0295611178848290e-01  3.5771790094596884e-01  3.0604188017545336e-01  2.4924708125487655e-01  1.8868628284255368e-01  1.2570161626288437e-01  6.1586178987911223e-02  -2.4475293613262028e-03  -6.5292351527263176e-02  -1.2596494535562264e-01  -1.8361876564604712e-01  -2.3755232183592095e-01  -2.8721326093487187e-01  -3.3219859860475975e-01  -3.7225120103911741e-01  -4.0725255027047702e-01  -4.3721182028021943e-01  -4.6225146603296763e-01  -4.8258966516282564e-01  -4.9852021944305192e-01  -5.1039064516311561e-01  -5.1857941705654198e-01  -5.2347336269893008e-01  -5.2544630925346514e-01  -5.2483998908365359e-01  -5.2194819708562690e-01  -5.1700496073086466e-01  -5.1017740217597385e-01  -5.0156369938187506e-01  -4.9119654561614667e-01  -4.7905227030366054e-01  -4.6506624855615297e-01  -4.4915369586030957e-01  -4.3124187032363448e-01  -4.1129396377441496e-01  -3.8940586370655811e-01  -3.6568825338511485e-01  -3.4098087489042594e-01  -3.1477673409535817e-01  -2.9273606486977705e-01  -2.6250491135741955e-01  -2.7248656146823041e-01  -1.7863939724945221e-01  -4.4136165850470094e-01  -4.1139174525635069e-01  -4.3263179739907481e-01  -3.5554653469171149e-01  -2.8837332528619719e-01  -2.1783759583626697e-01  -1.4604187229415902e-01  -7.4247948584205442e-02  -3.6810932017956118e-03  6.4393288584906533e-02  1.2875677583985504e-01  1.8825392405526564e-01  2.4181522925711563e-01  2.8848214210644224e-01  3.2743344469097391e-01  3.5801076206632365e-01  3.7974071378011048e-01  3.9235152127065859e-01  3.9578232293005905e-01  3.9018422778239537e-01  3.7591279306624992e-01  3.5351247416853671e-01  3.2369410673301874e-01  2.8730706684220436e-01  2.4530789923124949e-01  1.9872733171849966e-01  1.4863733890505687e-01  9.6119692069836157e-02  4.2236994319234319e-02  -1.1993095221440419e-02  -6.5620106652259813e-02  -1.1777929056275034e-01  -1.6770639662152098e-01  -2.1474868532320526e-01  -2.5837216516534262e-01  -2.9816506357153066e-01  -3.3383753204574113e-01  -3.6521769686671046e-01  -3.9224420485342565e-01  -4.1495558364669716e-01  -4.3347678988737026e-01  -4.4800348695595010e-01  -4.5878461438520823e-01  -4.6610395131318977e-01  -4.7026136362468657e-01  -4.7155457035770071e-01  -4.7026222533827400e-01  -4.6662922976596460e-01  -4.6085512603276452e-01  -4.5308645809526787e-01  -4.4341382449980221e-01  -4.3187428711574727e-01  -4.1845946871157941e-01  -4.0312997949827639e-01  -3.8583476264316036e-01  -3.6654162965429454e-01  -3.4525465928206356e-01  -3.2211253044552612e-01  -2.9722197886028573e-01  -2.7147662095713110e-01  -2.4397025340526732e-01  -2.2108778367676174e-01  -1.8639980857038127e-01  -1.9938744381839246e-01  -7.3439298493850905e-02  -4.1139174525635069e-01  -3.7487330030167015e-01  -4.7146532807284114e-01  -3.7711328156978807e-01  -3.1274910736762468e-01  -2.4340141308508073e-01  -1.7469620187352555e-01  -1.0665144201505969e-01  -4.0261615037970752e-02  2.3504653635041849e-02  8.3663422130818302e-02  1.3925853662326013e-01  1.8939105989854002e-01  2.3324694251986861e-01  2.7012325913588325e-01  2.9945247686983750e-01  3.2082343268123337e-01  3.3399735737570230e-01  3.3891763452050105e-01  3.3571224308389891e-01  3.2468860927757653e-01  3.0632103320281540e-01  2.8123166284002671e-01  2.5016628948745118e-01  2.1396671978861595e-01  1.7354140874182927e-01  1.2983608326414695e-01  8.3805696914642708e-02  3.6388816064614797e-02  -1.1514940555438512e-02  -5.9064031397732759e-02  -1.0549061802432547e-01  -1.5011272865071545e-01  -1.9234307091957900e-01  -2.3169461787461282e-01  -2.6778303850783808e-01  -3.0032609565253376e-01  -3.2914006855655464e-01  -3.5413340409130878e-01  -3.7529777216576177e-01  -3.9269691536604151e-01  -4.0645364442309895e-01  -4.1673556216560681e-01  -4.2374003185815129e-01  -4.2767912731859131e-01  -4.2876517114572382e-01  -4.2719765972117063e-01  -4.2315219284465899e-01  -4.1677215432471720e-01  -4.0816363835864217e-01  -3.9739417825652495e-01  -3.8449556193402823e-01  -3.6947096003979568e-01  -3.5230674751365654e-01  -3.3298741134029758e-01  -3.1152042697985227e-01  -2.8794281117718418e-01  -2.6241799953079631e-01  -2.3501643590237423e-01  -2.0665304254562977e-01  -1.7596426474274976e-01  -1.5015328727427821e-01  -1.0862985343290418e-01  -1.2290851195822373e-01  3.6348020526305161e-02  -3.7487330030167015e-01  -3.3320970700048808e-01  -5.1039199644070388e-01  -3.9897461698236331e-01  -3.3822020970856437e-01  -2.7033551027985264e-01  -2.0481458001528197e-01  -1.4051377357839093e-01  -7.8324376259898257e-02  -1.8937355194626547e-02  3.6871446821225957e-02  8.8338448867051250e-02  1.3473883757388558e-01  1.7541582619062362e-01  2.0980481158557268e-01  2.3745424507430754e-01  2.5804248036344041e-01  2.7139004641466496e-01  2.7746659542618879e-01  2.7639221776028389e-01  2.6843296157050323e-01  2.5399097741452770e-01  2.3358985470371033e-01  2.0785618189982144e-01  1.7749835869407743e-01  1.4328391398349893e-01  1.0601638084997833e-01  6.6512785079942696e-02  2.5582505119078398e-02  -1.5991847386239762e-02  -5.7471143853493424e-02  -9.8173780489603901e-02  -1.3748691990530620e-01  -1.7487488899050752e-01  -2.0988472113765588e-01  -2.4214891049566811e-01  -2.7138541953955142e-01  -2.9739510889508830e-01  -3.2005670883542803e-01  -3.3931963432267409e-01  -3.5519488167210944e-01  -3.6774446453494269e-01  -3.7706974703868129e-01  -3.8329925683717986e-01  -3.8657642668515102e-01  -3.8704792499488766e-01  -3.8485304981890361e-01  -3.8011484655883465e-01  -3.7293336795033111e-01  -3.6338164342039997e-01  -3.5150461695908192e-01  -3.3732143299013917e-01  -3.2083100899967565e-01  -3.0202141261697274e-01  -2.8088091919221569e-01  -2.5741850417421308e-01  -2.3166122614567272e-01  -2.0375254867937881e-01  -1.7368251482755356e-01  -1.4235892268225545e-01  -1.0793024558437662e-01  -7.8518586293603643e-02  -2.9294198031657163e-02  -4.4409523162227835e-02  1.4793867136192693e-01  -3.3320970700048808e-01  -2.8800207387815613e-01  -5.4784129989416674e-01  -4.1969481452286306e-01  -3.6315880519853727e-01  -2.9652059471327230e-01  -2.3366988035839992e-01  -1.7239264340017921e-01  -1.1356412932711030e-01  -5.7650440474258831e-02  -5.2650881867489507e-03  4.2985669880360948e-02  8.6516744579639343e-02  1.2479491702118792e-01  1.5736102508838953e-01  1.8384882584685730e-01  2.0399985850794811e-01  2.1767412469665942e-01  2.2485626281600693e-01  2.2565698653336044e-01  2.2030979415121557e-01  2.0916319622657459e-01  1.9266898238987021e-01  1.7136725467197628e-01  1.4586910771959763e-01  1.1683789610589720e-01  8.4970011113233476e-02  5.0975999811796631e-02  1.5562718463581557e-02  -2.0582938371745945e-02  -5.6808355249712901e-02  -9.2507310170104232e-02  -1.2712974900074936e-01  -1.6018915316376614e-01  -1.9126749477506136e-01  -2.2001780969761048e-01  -2.4616445978329143e-01  -2.6950119186297955e-01  -2.8988715532537246e-01  -3.0724108166759212e-01  -3.2153390174924285e-01  -3.3278011270862212e-01  -3.4102827996660351e-01  -3.4635108031560330e-01  -3.4883534418492373e-01  -3.4857255079200949e-01  -3.4565025781390030e-01  -3.4014488837666457e-01  -3.3211630649584672e-01  -3.2160449314873846e-01  -3.0862860669799785e-01  -2.9318857057734465e-01  -2.7526915532917967e-01  -2.5484689188112880e-01  -2.3189757761457838e-01  -2.0641272511991454e-01  -1.7838887915286561e-01  -1.4792893740764379e-01  -1.1492495395521410e-01  -8.0271154959837276e-02  -4.1625201849603187e-02  -8.1027905485996851e-03  4.9401222794720291e-02  3.3793060840265794e-02  2.5862935193998776e-01  -2.8800207387815613e-01  -2.4098770492283283e-01  -5.8304703528010560e-01  -4.3851831629688237e-01  -3.8683347289107622e-01  -3.2148306813320254e-01  -2.6116221476377754e-01  -2.0258792841967957e-01  -1.4670460660346871e-01  -9.3804379586396577e-02  -4.4377605192482322e-02  1.0972962190279082e-03  4.2151295615697498e-02  7.8356239993130322e-02  1.0934408755516363e-01  1.3482366698588319e-01  1.5459345062065025e-01  1.6855056823473213e-01  1.7669596879127697e-01  1.7913562542917383e-01  1.7607793893254101e-01  1.6782751431078408e-01  1.5477580690085005e-01  1.3738912763242955e-01  1.1619474152640583e-01  9.1765699580355256e-02  6.4705170239788598e-02  3.5630865102158744e-02  5.1601716090610029e-03  -2.6103589416170352e-02  -5.7583394916363627e-02  -8.8739009239396788e-02  -1.1907555586289405e-01  -1.4815007959424201e-01  -1.7557606915698257e-01  -2.0102593505128571e-01  -2.2423152299239088e-01  -2.4498272820523659e-01  -2.6312438695242368e-01  -2.7855159374797711e-01  -2.9120371840957782e-01  -3.0105735346864976e-01  -3.0811855612175015e-01  -3.1241468013000617e-01  -3.1398622199205684e-01  -3.1287900069532992e-01  -3.0913709673559281e-01  -3.0279685247916477e-01  -2.9388228461677640e-01  -2.8240211745858340e-01  -2.6834864791051588e-01  -2.5169850065912364e-01  -2.3241519708579134e-01  -2.1045383164867373e-01  -1.8576547075256378e-01  -1.5831031202839668e-01  -1.2804035753995968e-01  -9.5004929483210057e-02  -5.8990396310645156e-02  -2.0874920883982816e-02  2.2162240465836688e-02  5.9983649167327117e-02  1.2592400795696962e-01  1.0999730543038916e-01  3.6614887967026977e-01  -2.4098770492283283e-01  -1.9397333596750962e-01  -6.1564054067479868e-01  -4.5513176348377143e-01  -4.0880513237910154e-01  -3.4477685913302680e-01  -2.8686303336005858e-01  -2.3070240070588649e-01  -1.7738375598925724e-01  -1.2706392540657371e-01  -8.0145263291108326e-02  -3.7006291189710633e-02  1.9767792722714399e-03  3.6461318047798501e-02  6.6153985605624258e-02  9.0825372090751769e-02  1.1032082837854423e-01  1.2456814688293992e-01  1.3358191948281239e-01  1.3746467535667117e-01  1.3640483810320633e-01  1.3067178984624278e-01  1.2060831528046015e-01  1.0662092965957753e-01  8.9168543543760914e-02  6.8750080603268815e-02  4.5891551296533051e-02  2.1133155117984248e-02  -4.9831683532969070e-03  -3.1925306709599352e-02  -5.9181380250331525e-02  -8.6268732458389660e-02  -1.1274135544955236e-01  -1.3819564622620778e-01  -1.6227444239364625e-01  -1.8466934916586503e-01  -2.0512137788726695e-01  -2.2342000153748354e-01  -2.3940071907454918e-01  -2.5294131934267872e-01  -2.6395700524737059e-01  -2.7239465005382030e-01  -2.7822640617157102e-01  -2.8144299973503367e-01  -2.8204695756527887e-01  -2.8004612602371254e-01  -2.7544772392625694e-01  -2.6825324684204932e-01  -2.5845440970080535e-01  -2.4603034783695557e-01  -2.3094614234964014e-01  -2.1315275945934770e-01  -1.9258819555882231e-01  -1.6918021979486894e-01  -1.4284814876650978e-01  -1.1351334635835938e-01  -8.1076625248354114e-02  -4.5528083802730240e-02  -6.5493217570752665e-03  3.4999511451850776e-02  8.2388966875111158e-02  1.2448607389562699e-01  1.9868708406240268e-01  1.8256089068130643e-01  4.6825040009392199e-01  -1.9397333596750962e-01  -1.4876570284517765e-01  -6.4544886128465839e-01  -4.6951194741432678e-01  -4.2886617220084627e-01  -3.6616954626055803e-01  -3.1056917330896588e-01  -2.5660359569405405e-01  -2.0555996024551490e-01  -1.5748814992077559e-01  -1.1273165286783322e-01  -7.1592232237138301e-02  -3.4372762751491245e-02  -1.3464481311149452e-03  2.7255016354885041e-02  5.1253832709974904e-02  7.0535042520775304e-02  8.5052869250087676e-02  9.4834330739527670e-02  9.9980168897598906e-02  1.0066323186372546e-01  9.7124462710515336e-02  8.9666801499184351e-02  7.8647314713852862e-02  6.4467987553843378e-02  4.7565578073042063e-02  2.8401004589982435e-02  7.4486544226039777e-03  -1.4813976305689796e-02  -3.7916010551857622e-02  -6.1401993530843642e-02  -8.4839576163315764e-02  -1.0782591689051571e-01  -1.2999270447038297e-01  -1.5100974863940669e-01  -1.7058712238681958e-01  -1.8847589201572448e-01  -2.0446748710333273e-01  -2.1839182397775198e-01  -2.3011429965703903e-01  -2.3953184044159259e-01  -2.4656817405592441e-01  -2.5116856922642250e-01  -2.5329424563556102e-01  -2.5291673081835997e-01  -2.5001236903509455e-01  -2.4455724747827420e-01  -2.3652271421552151e-01  -2.2587168810807945e-01  -2.1255585323553744e-01  -1.9651382642841200e-01  -1.7767028157804685e-01  -1.5593588317205909e-01  -1.3120834577903076e-01  -1.0337211395524534e-01  -7.2306670222847771e-02  -3.7860016660650100e-02  3.8034400433463686e-05  4.1803916823707293e-02  8.6599796843648089e-02  1.3810001273953343e-01  1.8426063509755769e-01  2.6622075207616980e-01  2.4998810320666254e-01  5.6278923336694009e-01  -1.4876570284517765e-01  -1.0710210954399547e-01  -6.7238429324481275e-01  -4.8182390851413831e-01  -4.4695947092878496e-01  -3.8555807153305532e-01  -3.3216436035883412e-01  -2.8019822042851639e-01  -2.3118286799502064e-01  -1.8508100928084145e-01  -1.4219924515305124e-01  -1.0278071704824882e-01  -6.7070850282150679e-02  -3.5286813351874835e-02  -7.6097139871126075e-03  1.5825558027450209e-02  3.4937399178025998e-02  4.9702585328053425e-02  6.0159137691647532e-02  6.6407041675118045e-02  6.8606895132284101e-02  6.6976638295028021e-02  6.1786577573521149e-02  5.3352976950983330e-02  4.2030524520058635e-02  2.8204022011934417e-02  1.2279634658692092e-02  -5.3239509834876516e-03  -2.4184165347327702e-02  -4.3882701513147090e-02  -6.4012949477356404e-02  -8.4186525000851248e-02  -1.0403876090130532e-01  -1.2323305847257431e-01  -1.4146404852465780e-01  -1.5845953928414411e-01  -1.7398127230468244e-01  -1.8782453120076101e-01  -1.9981668707592679e-01  -2.0981478750216265e-01  -2.1770232399307005e-01  -2.2338533820670603e-01  -2.2678803862798072e-01  -2.2784812317628120e-01  -2.2651199152257712e-01  -2.2273004798059970e-01  -2.1645226275959881e-01  -2.0762415588594968e-01  -1.9618331703568603e-01  -1.8205654957736458e-01  -1.6515765919313549e-01  -1.4538588350769913e-01  -1.2262477455295573e-01  -9.6741897560178064e-02  -6.7586842349044801e-02  -3.4997739045554650e-02  1.2279517496211370e-03  4.1218329570559722e-02  8.5476480982520364e-02  1.3319390499528802e-01  1.8838414755319496e-01  2.3823463371714051e-01  3.2714294734571780e-01  3.1089484947525681e-01  6.4772073601160152e-01  -1.0710210954399547e-01  -7.0583664589314976e-02  -6.9638153769673561e-01  -4.9234226668218650e-01  -4.6311682002638038e-01  -4.0292638913430906e-01  -3.5160383564894981e-01  -3.0145098758830141e-01  -2.5424800779015938e-01  -2.0988240832760682e-01  -1.6863905773165788e-01  -1.3071575952777895e-01  -9.6312632449412294e-02  -6.5601287061223826e-02  -3.8721030900689568e-02  -1.5770817541222580e-02  3.1960337819619627e-03  1.8175746618045316e-02  2.9216233726701461e-02  3.6417568694531610e-02  3.9930801425587990e-02  3.9955252267548313e-02  3.6734424950194605e-02  3.0550763583722922e-02  2.1719483155625274e-02  1.0581748705083971e-02  -2.5025288726913180e-03  -1.7162010962