<?xml version="1.0"?>
<VTKFile type="UnstructuredGrid"  version="0.1"  >
<UnstructuredGrid>
<Piece  NumberOfPoints="4225" NumberOfCells="8192">
<Points>
<DataArray  type="Float64"  NumberOfComponents="3"  format="ascii">-1 -1 0  -0.96875 -1 0  -0.9375 -1 0  -0.90625 -1 0  -0.875 -1 0  -0.84375 -1 0  -0.8125 -1 0  -0.78125 -1 0  -0.75 -1 0  -0.71875 -1 0  -0.6875 -1 0  -0.65625 -1 0  -0.625 -1 0  -0.59375 -1 0  -0.5625 -1 0  -0.53125 -1 0  -0.5 -1 0  -0.46875 -1 0  -0.4375 -1 0  -0.40625 -1 0  -0.375 -1 0  -0.34375 -1 0  -0.3125 -1 0  -0.28125 -1 0  -0.25 -1 0  -0.21875 -1 0  -0.1875 -1 0  -0.15625 -1 0  -0.125 -1 0  -0.09375 -1 0  -0.0625 -1 0  -0.03125 -1 0  0 -1 0  0.03125 -1 0  0.0625 -1 0  0.09375 -1 0  0.125 -1 0  0.15625 -1 0  0.1875 -1 0  0.21875 -1 0  0.25 -1 0  0.28125 -1 0  0.3125 -1 0  0.34375 -1 0  0.375 -1 0  0.40625 -1 0  0.4375 -1 0  0.46875 -1 0  0.5 -1 0  0.53125 -1 0  0.5625 -1 0  0.59375 -1 0  0.625 -1 0  0.65625 -1 0  0.6875 -1 0  0.71875 -1 0  0.75 -1 0  0.78125 -1 0  0.8125 -1 0  0.84375 -1 0  0.875 -1 0  0.90625 -1 0  0.9375 -1 0  0.96875 -1 0  1 -1 0  -1 -0.96875 0  -0.96875 -0.96875 0  -0.9375 -0.96875 0  -0.90625 -0.96875 0  -0.875 -0.96875 0  -0.84375 -0.96875 0  -0.8125 -0.96875 0  -0.78125 -0.96875 0  -0.75 -0.96875 0  -0.71875 -0.96875 0  -0.6875 -0.96875 0  -0.65625 -0.96875 0  -0.625 -0.96875 0  -0.59375 -0.96875 0  -0.5625 -0.96875 0  -0.53125 -0.96875 0  -0.5 -0.96875 0  -0.46875 -0.96875 0  -0.4375 -0.96875 0  -0.40625 -0.96875 0  -0.375 -0.96875 0  -0.34375 -0.96875 0  -0.3125 -0.96875 0  -0.28125 -0.96875 0  -0.25 -0.96875 0  -0.21875 -0.96875 0  -0.1875 -0.96875 0  -0.15625 -0.96875 0  -0.125 -0.96875 0  -0.09375 -0.96875 0  -0.0625 -0.96875 0  -0.03125 -0.96875 0  0 -0.96875 0  0.03125 -0.96875 0  0.0625 -0.96875 0  0.09375 -0.96875 0  0.125 -0.96875 0  0.15625 -0.96875 0  0.1875 -0.96875 0  0.21875 -0.96875 0  0.25 -0.96875 0  0.28125 -0.96875 0  0.3125 -0.96875 0  0.34375 -0.96875 0  0.375 -0.96875 0  0.40625 -0.96875 0  0.4375 -0.96875 0  0.46875 -0.96875 0  0.5 -0.96875 0  0.53125 -0.96875 0  0.5625 -0.96875 0  0.59375 -0.96875 0  0.625 -0.96875 0  0.65625 -0.96875 0  0.6875 -0.96875 0  0.71875 -0.96875 0  0.75 -0.96875 0  0.78125 -0.96875 0  0.8125 -0.96875 0  0.84375 -0.96875 0  0.875 -0.96875 0  0.90625 -0.96875 0  0.9375 -0.96875 0  0.96875 -0.96875 0  1 -0.96875 0  -1 -0.9375 0  -0.96875 -0.9375 0  -0.9375 -0.9375 0  -0.90625 -0.9375 0  -0.875 -0.9375 0  -0.84375 -0.9375 0  -0.8125 -0.9375 0  -0.78125 -0.9375 0  -0.75 -0.9375 0  -0.71875 -0.9375 0  -0.6875 -0.9375 0  -0.65625 -0.9375 0  -0.625 -0.9375 0  -0.59375 -0.9375 0  -0.5625 -0.9375 0  -0.53125 -0.9375 0  -0.5 -0.9375 0  -0.46875 -0.9375 0  -0.4375 -0.9375 0  -0.40625 -0.9375 0  -0.375 -0.9375 0  -0.34375 -0.9375 0  -0.3125 -0.9375 0  -0.28125 -0.9375 0  -0.25 -0.9375 0  -0.21875 -0.9375 0  -0.1875 -0.9375 0  -0.15625 -0.9375 0  -0.125 -0.9375 0  -0.09375 -0.9375 0  -0.0625 -0.9375 0  -0.03125 -0.9375 0  0 -0.9375 0  0.03125 -0.9375 0  0.0625 -0.9375 0  0.09375 -0.9375 0  0.125 -0.9375 0  0.15625 -0.9375 0  0.1875 -0.9375 0  0.21875 -0.9375 0  0.25 -0.9375 0  0.28125 -0.9375 0  0.3125 -0.9375 0  0.34375 -0.9375 0  0.375 -0.9375 0  0.40625 -0.9375 0  0.4375 -0.9375 0  0.46875 -0.9375 0  0.5 -0.9375 0  0.53125 -0.9375 0  0.5625 -0.9375 0  0.59375 -0.9375 0  0.625 -0.9375 0  0.65625 -0.9375 0  0.6875 -0.9375 0  0.71875 -0.9375 0  0.75 -0.9375 0  0.78125 -0.9375 0  0.8125 -0.9375 0  0.84375 -0.9375 0  0.875 -0.9375 0  0.90625 -0.9375 0  0.9375 -0.9375 0  0.96875 -0.9375 0  1 -0.9375 0  -1 -0.90625 0  -0.96875 -0.90625 0  -0.9375 -0.90625 0  -0.90625 -0.90625 0  -0.875 -0.90625 0  -0.84375 -0.90625 0  -0.8125 -0.90625 0  -0.78125 -0.90625 0  -0.75 -0.90625 0  -0.71875 -0.90625 0  -0.6875 -0.90625 0  -0.65625 -0.90625 0  -0.625 -0.90625 0  -0.59375 -0.90625 0  -0.5625 -0.90625 0  -0.53125 -0.90625 0  -0.5 -0.90625 0  -0.46875 -0.90625 0  -0.4375 -0.90625 0  -0.40625 -0.90625 0  -0.375 -0.90625 0  -0.34375 -0.90625 0  -0.3125 -0.90625 0  -0.28125 -0.90625 0  -0.25 -0.90625 0  -0.21875 -0.90625 0  -0.1875 -0.90625 0  -0.15625 -0.90625 0  -0.125 -0.90625 0  -0.09375 -0.90625 0  -0.0625 -0.90625 0  -0.03125 -0.90625 0  0 -0.90625 0  0.03125 -0.90625 0  0.0625 -0.90625 0  0.09375 -0.90625 0  0.125 -0.90625 0  0.15625 -0.90625 0  0.1875 -0.90625 0  0.21875 -0.90625 0  0.25 -0.90625 0  0.28125 -0.90625 0  0.3125 -0.90625 0  0.34375 -0.90625 0  0.375 -0.90625 0  0.40625 -0.90625 0  0.4375 -0.90625 0  0.46875 -0.90625 0  0.5 -0.90625 0  0.53125 -0.90625 0  0.5625 -0.90625 0  0.59375 -0.90625 0  0.625 -0.90625 0  0.65625 -0.90625 0  0.6875 -0.90625 0  0.71875 -0.90625 0  0.75 -0.90625 0  0.78125 -0.90625 0  0.8125 -0.90625 0  0.84375 -0.90625 0  0.875 -0.90625 0  0.90625 -0.90625 0  0.9375 -0.90625 0  0.96875 -0.90625 0  1 -0.90625 0  -1 -0.875 0  -0.96875 -0.875 0  -0.9375 -0.875 0  -0.90625 -0.875 0  -0.875 -0.875 0  -0.84375 -0.875 0  -0.8125 -0.875 0  -0.78125 -0.875 0  -0.75 -0.875 0  -0.71875 -0.875 0  -0.6875 -0.875 0  -0.65625 -0.875 0  -0.625 -0.875 0  -0.59375 -0.875 0  -0.5625 -0.875 0  -0.53125 -0.875 0  -0.5 -0.875 0  -0.46875 -0.875 0  -0.4375 -0.875 0  -0.40625 -0.875 0  -0.375 -0.875 0  -0.34375 -0.875 0  -0.3125 -0.875 0  -0.28125 -0.875 0  -0.25 -0.875 0  -0.21875 -0.875 0  -0.1875 -0.875 0  -0.15625 -0.875 0  -0.125 -0.875 0  -0.09375 -0.875 0  -0.0625 -0.875 0  -0.03125 -0.875 0  0 -0.875 0  0.03125 -0.875 0  0.0625 -0.875 0  0.09375 -0.875 0  0.125 -0.875 0  0.15625 -0.875 0  0.1875 -0.875 0  0.21875 -0.875 0  0.25 -0.875 0  0.28125 -0.875 0  0.3125 -0.875 0  0.34375 -0.875 0  0.375 -0.875 0  0.40625 -0.875 0  0.4375 -0.875 0  0.46875 -0.875 0  0.5 -0.875 0  0.53125 -0.875 0  0.5625 -0.875 0  0.59375 -0.875 0  0.625 -0.875 0  0.65625 -0.875 0  0.6875 -0.875 0  0.71875 -0.875 0  0.75 -0.875 0  0.78125 -0.875 0  0.8125 -0.875 0  0.84375 -0.875 0  0.875 -0.875 0  0.90625 -0.875 0  0.9375 -0.875 0  0.96875 -0.875 0  1 -0.875 0  -1 -0.84375 0  -0.96875 -0.84375 0  -0.9375 -0.84375 0  -0.90625 -0.84375 0  -0.875 -0.84375 0  -0.84375 -0.84375 0  -0.8125 -0.84375 0  -0.78125 -0.84375 0  -0.75 -0.84375 0  -0.71875 -0.84375 0  -0.6875 -0.84375 0  -0.65625 -0.84375 0  -0.625 -0.84375 0  -0.59375 -0.84375 0  -0.5625 -0.84375 0  -0.53125 -0.84375 0  -0.5 -0.84375 0  -0.46875 -0.84375 0  -0.4375 -0.84375 0  -0.40625 -0.84375 0  -0.375 -0.84375 0  -0.34375 -0.84375 0  -0.3125 -0.84375 0  -0.28125 -0.84375 0  -0.25 -0.84375 0  -0.21875 -0.84375 0  -0.1875 -0.84375 0  -0.15625 -0.84375 0  -0.125 -0.84375 0  -0.09375 -0.84375 0  -0.0625 -0.84375 0  -0.03125 -0.84375 0  0 -0.84375 0  0.03125 -0.84375 0  0.0625 -0.84375 0  0.09375 -0.84375 0  0.125 -0.84375 0  0.15625 -0.84375 0  0.1875 -0.84375 0  0.21875 -0.84375 0  0.25 -0.84375 0  0.28125 -0.84375 0  0.3125 -0.84375 0  0.34375 -0.84375 0  0.375 -0.84375 0  0.40625 -0.84375 0  0.4375 -0.84375 0  0.46875 -0.84375 0  0.5 -0.84375 0  0.53125 -0.84375 0  0.5625 -0.84375 0  0.59375 -0.84375 0  0.625 -0.84375 0  0.65625 -0.84375 0  0.6875 -0.84375 0  0.71875 -0.84375 0  0.75 -0.84375 0  0.78125 -0.84375 0  0.8125 -0.84375 0  0.84375 -0.84375 0  0.875 -0.84375 0  0.90625 -0.84375 0  0.9375 -0.84375 0  0.96875 -0.84375 0  1 -0.84375 0  -1 -0.8125 0  -0.96875 -0.8125 0  -0.9375 -0.8125 0  -0.90625 -0.8125 0  -0.875 -0.8125 0  -0.84375 -0.8125 0  -0.8125 -0.8125 0  -0.78125 -0.8125 0  -0.75 -0.8125 0  -0.71875 -0.8125 0  -0.6875 -0.8125 0  -0.65625 -0.8125 0  -0.625 -0.8125 0  -0.59375 -0.8125 0  -0.5625 -0.8125 0  -0.53125 -0.8125 0  -0.5 -0.8125 0  -0.46875 -0.8125 0  -0.4375 -0.8125 0  -0.40625 -0.8125 0  -0.375 -0.8125 0  -0.34375 -0.8125 0  -0.3125 -0.8125 0  -0.28125 -0.8125 0  -0.25 -0.8125 0  -0.21875 -0.8125 0  -0.1875 -0.8125 0  -0.15625 -0.8125 0  -0.125 -0.8125 0  -0.09375 -0.8125 0  -0.0625 -0.8125 0  -0.03125 -0.8125 0  0 -0.8125 0  0.03125 -0.8125 0  0.0625 -0.8125 0  0.09375 -0.8125 0  0.125 -0.8125 0  0.15625 -0.8125 0  0.1875 -0.8125 0  0.21875 -0.8125 0  0.25 -0.8125 0  0.28125 -0.8125 0  0.3125 -0.8125 0  0.34375 -0.8125 0  0.375 -0.8125 0  0.40625 -0.8125 0  0.4375 -0.8125 0  0.46875 -0.8125 0  0.5 -0.8125 0  0.53125 -0.8125 0  0.5625 -0.8125 0  0.59375 -0.8125 0  0.625 -0.8125 0  0.65625 -0.8125 0  0.6875 -0.8125 0  0.71875 -0.8125 0  0.75 -0.8125 0  0.78125 -0.8125 0  0.8125 -0.8125 0  0.84375 -0.8125 0  0.875 -0.8125 0  0.90625 -0.8125 0  0.9375 -0.8125 0  0.96875 -0.8125 0  1 -0.8125 0  -1 -0.78125 0  -0.96875 -0.78125 0  -0.9375 -0.78125 0  -0.90625 -0.78125 0  -0.875 -0.78125 0  -0.84375 -0.78125 0  -0.8125 -0.78125 0  -0.78125 -0.78125 0  -0.75 -0.78125 0  -0.71875 -0.78125 0  -0.6875 -0.78125 0  -0.65625 -0.78125 0  -0.625 -0.78125 0  -0.59375 -0.78125 0  -0.5625 -0.78125 0  -0.53125 -0.78125 0  -0.5 -0.78125 0  -0.46875 -0.78125 0  -0.4375 -0.78125 0  -0.40625 -0.78125 0  -0.375 -0.78125 0  -0.34375 -0.78125 0  -0.3125 -0.78125 0  -0.28125 -0.78125 0  -0.25 -0.78125 0  -0.21875 -0.78125 0  -0.1875 -0.78125 0  -0.15625 -0.78125 0  -0.125 -0.78125 0  -0.09375 -0.78125 0  -0.0625 -0.78125 0  -0.03125 -0.78125 0  0 -0.78125 0  0.03125 -0.78125 0  0.0625 -0.78125 0  0.09375 -0.78125 0  0.125 -0.78125 0  0.15625 -0.78125 0  0.1875 -0.78125 0  0.21875 -0.78125 0  0.25 -0.78125 0  0.28125 -0.78125 0  0.3125 -0.78125 0  0.34375 -0.78125 0  0.375 -0.78125 0  0.40625 -0.78125 0  0.4375 -0.78125 0  0.46875 -0.78125 0  0.5 -0.78125 0  0.53125 -0.78125 0  0.5625 -0.78125 0  0.59375 -0.78125 0  0.625 -0.78125 0  0.65625 -0.78125 0  0.6875 -0.78125 0  0.71875 -0.78125 0  0.75 -0.78125 0  0.78125 -0.78125 0  0.8125 -0.78125 0  0.84375 -0.78125 0  0.875 -0.78125 0  0.90625 -0.78125 0  0.9375 -0.78125 0  0.96875 -0.78125 0  1 -0.78125 0  -1 -0.75 0  -0.96875 -0.75 0  -0.9375 -0.75 0  -0.90625 -0.75 0  -0.875 -0.75 0  -0.84375 -0.75 0  -0.8125 -0.75 0  -0.78125 -0.75 0  -0.75 -0.75 0  -0.71875 -0.75 0  -0.6875 -0.75 0  -0.65625 -0.75 0  -0.625 -0.75 0  -0.59375 -0.75 0  -0.5625 -0.75 0  -0.53125 -0.75 0  -0.5 -0.75 0  -0.46875 -0.75 0  -0.4375 -0.75 0  -0.40625 -0.75
[...]
<PointData  Scalars="f_15"> 
<DataArray  type="Float64"  Name="f_15"  format="ascii">-4.6021941714292075e-01  -4.5579792361622573e-01  -4.4270335855276954e-01  -4.2143893874442417e-01  -3.9282184391920028e-01  -3.5795181298257922e-01  -3.1816888166811741e-01  -2.7500188571570405e-01  -2.3010970857146035e-01  -1.8521753142721661e-01  -1.4205053547480329e-01  -1.0226760416034138e-01  -6.7397573223720475e-02  -3.8780478398496486e-02  -1.7516058590151106e-02  -4.4214935266949744e-03  0.0000000000000000e+00  -4.4214935266949744e-03  -1.7516058590151130e-02  -3.8780478398496514e-02  -6.7397573223720530e-02  -1.0226760416034142e-01  -1.4205053547480342e-01  -1.8521753142721675e-01  -2.3010970857146038e-01  -2.7500188571570405e-01  -3.1816888166811735e-01  -3.5795181298257939e-01  -3.9282184391920028e-01  -4.2143893874442417e-01  -4.4270335855276954e-01  -4.5579792361622573e-01  -4.6021941714292075e-01  -4.5579792361622573e-01  -4.4270335855276954e-01  -4.2143893874442417e-01  -3.9282184391920028e-01  -3.5795181298257939e-01  -3.1816888166811735e-01  -2.7500188571570405e-01  -2.3010970857146038e-01  -1.8521753142721675e-01  -1.4205053547480342e-01  -1.0226760416034142e-01  -6.7397573223720530e-02  -3.8780478398496514e-02  -1.7516058590151130e-02  -4.4214935266949744e-03  0.0000000000000000e+00  -4.4214935266949744e-03  -1.7516058590151106e-02  -3.8780478398496486e-02  -6.7397573223720475e-02  -1.0226760416034138e-01  -1.4205053547480329e-01  -1.8521753142721661e-01  -2.3010970857146035e-01  -2.7500188571570405e-01  -3.1816888166811741e-01  -3.5795181298257922e-01  -3.9282184391920028e-01  -4.2143893874442417e-01  -4.4270335855276954e-01  -4.5579792361622573e-01  -4.6021941714292075e-01  -4.5579792361622573e-01  -3.3111923992573306e-01  -3.0006594294403127e-01  -2.5039645988138315e-01  -1.9165027482549155e-01  -1.2567397703486743e-01  -5.4684297818402568e-02  1.9190847859756395e-02  9.3846837230489089e-02  1.6720268979817696e-01  2.3723088764155625e-01  3.0200615897435273e-01  3.5976225319706484e-01  4.0894830507311014e-01  4.4827928776102710e-01  4.7677739610155134e-01  4.9380290145307348e-01  4.9907375580303309e-01  4.9267358801495564e-01  4.7504745126035552e-01  4.4698438801998691e-01  4.0958528075565631e-01  3.6421434314997020e-01  3.1243297199623998e-01  2.5591654392672947e-01  1.9635804429491829e-01  1.3536717371392695e-01  7.4377952368951436e-02  1.4579672493861605e-02  -4.3116959041651991e-02  -9.8074577906540616e-02  -1.4989113552522898e-01  -1.9834357685845153e-01  -2.4332999345319140e-01  -2.8482302704147849e-01  -3.2283936713373496e-01  -3.5742284778880667e-01  -3.8863456364586313e-01  -4.1654384644248638e-01  -4.4121688806262405e-01  -4.6270369647914850e-01  -4.8102648234255746e-01  -4.9617348245321224e-01  -5.0810107033271934e-01  -5.1674521192778178e-01  -5.2204093564359455e-01  -5.2394682926808933e-01  -5.2247024781269025e-01  -5.1768878052664369e-01  -5.0976376799295919e-01  -4.9894304230737468e-01  -4.8555130291645127e-01  -4.6996960097699958e-01  -4.5260480527227070e-01  -4.3386223269257523e-01  -4.1410785218891066e-01  -3.9371230526695139e-01  -3.7297478574117060e-01  -3.5271066845497429e-01  -3.3336280554191000e-01  -3.1922108939785276e-01  -3.0774439654679553e-01  -3.2246506744429426e-01  -3.0945990204357249e-01  -4.5579792361622573e-01  -4.4270335855276954e-01  -3.1377373969808453e-01  -3.1877207104375893e-01  -2.8517274748440752e-01  -2.4588605450970966e-01  -2.0007695609261772e-01  -1.4962621147914495e-01  -9.6196799582968603e-02  -4.1474943675831870e-02  1.2846375020726709e-02  6.5095056717893229e-02  1.1366682840021225e-01  1.5708185836139471e-01  1.9404227784246192e-01  2.2348396470330884e-01  2.4461864753333501e-01  2.5696419528545705e-01  2.6036214054042894e-01  2.5498160904523420e-01  2.4130881656486100e-01  2.2012082807823444e-01  1.9244237646670520e-01  1.5948503867442704e-01  1.2257006851314660e-01  8.3039379476696637e-02  4.2163585644887390e-02  1.0597068563132782e-03  -3.9367647926464688e-02  -7.8451071449619242e-02  -1.1574804437549020e-01  -1.5099777320077357e-01  -1.8406093135029655e-01  -2.1485869055956316e-01  -2.4332479569695517e-01  -2.6937808034501759e-01  -2.9291595963454514e-01  -3.1382416519174611e-01  -3.3199582702330338e-01  -3.4735315466694555e-01  -3.5986684846707218e-01  -3.6957018859884283e-01  -3.7656641183943046e-01  -3.8102866004574559e-01  -3.8319248069211775e-01  -3.8334124764008298e-01  -3.8178588238321515e-01  -3.7884107505932574e-01  -3.7480129064936696e-01  -3.6992009249074170e-01  -3.6439623716618608e-01  -3.5836888055201910e-01  -3.5192262706600386e-01  -3.4510235709612086e-01  -3.3793344089369010e-01  -3.3045451724502367e-01  -3.2273458675220168e-01  -3.1497492774560554e-01  -3.0741405046684567e-01  -3.0098363973408215e-01  -2.9589881950620739e-01  -2.9666677451430384e-01  -2.9757052660961208e-01  -3.2451369098119187e-01  -2.9847974113345654e-01  -4.4270335855276954e-01  -4.2143893874442417e-01  -3.0588390004023630e-01  -3.0171405096911180e-01  -2.6461950299291426e-01  -2.2462420570116984e-01  -1.7793894620631215e-01  -1.2673080531800424e-01  -7.2480923325188767e-02  -1.6772945954412179e-02  3.8766694852023727e-02  9.2492037945227201e-02  1.4278604120638586e-01  1.8812281637462519e-01  2.2713493165294679e-01  2.5867746913139128e-01  2.8188254162449777e-01  2.9620019070423298e-01  3.0142314937427772e-01  2.9769387076376652e-01  2.8549251224116123e-01  2.6560485938701822e-01  2.3906990187736865e-01  2.0710857097959795e-01  1.7103804393788738e-01  1.3217962706601794e-01  9.1771260567765231e-02  5.0896662694249126e-02  1.0440878914936409e-02  -2.8923286315557094e-02  -6.6720173949052539e-02  -1.0263553633378557e-01  -1.3647120132874080e-01  -1.6810088270801082e-01  -1.9743497852101993e-01  -2.2439815831868734e-01  -2.4891969287249299e-01  -2.7093380096919556e-01  -2.9038605830828440e-01  -3.0724200905155763e-01  -3.2149498060958126e-01  -3.3317130170445292e-01  -3.4233216166625285e-01  -3.4907219050290128e-01  -3.5351531796724639e-01  -3.5580880216546779e-01  -3.5611643229989837e-01  -3.5461197306697251e-01  -3.5147376014064663e-01  -3.4688118056870920e-01  -3.4101336582565794e-01  -3.3405025827457252e-01  -3.2617557205083952e-01  -3.1758251952180799e-01  -3.0847918785625700e-01  -2.9910652765244478e-01  -2.8973459349980085e-01  -2.8076627125410480e-01  -2.7257100722790434e-01  -2.6626599931969969e-01  -2.6172727553495534e-01  -2.6393621681372503e-01  -2.6348140888749455e-01  -2.9187553699520613e-01  -2.4361811084201915e-01  -4.2143893874442417e-01  -3.9282184391920028e-01  -3.1167848868555753e-01  -2.9708741645333564e-01  -2.6143319175269547e-01  -2.2316870925779486e-01  -1.7982622419617889e-01  -1.3327630180702776e-01  -8.4609694231272528e-02  -3.5115716999598277e-02  1.3886926587393158e-02  6.1064985654588018e-02  1.0511179303466155e-01  1.4479730489011630e-01  1.7902297262367539e-01  2.0687517416563381e-01  2.2767137452334071e-01  2.4099435882606496e-01  2.4671115893533288e-01  2.4497460798770473e-01  2.3620658207867154e-01  2.2106338139737031e-01  2.0038526814319482e-01  1.7513423165699696e-01  1.4632599537279276e-01  1.1496377845158688e-01  8.1981454857034508e-02  4.8202346518404354e-02  1.4316955555275917e-02  -1.9120572416199213e-02  -5.1680682507876254e-02  -8.3036773160895153e-02  -1.1293968106868532e-01  -1.4119353566571902e-01  -1.6763663103679982e-01  -1.9212907626077064e-01  -2.1454719373353373e-01  -2.3478339482354751e-01  -2.5274955408408140e-01  -2.6838187994015306e-01  -2.8164557286308545e-01  -2.9253815024344798e-01  -3.0109080253026832e-01  -3.0736763606048101e-01  -3.1146291849339569e-01  -3.1349674389675686e-01  -3.1360965543671143e-01  -3.1195698473781619e-01  -3.0870370791706425e-01  -3.0402068269075705e-01  -2.9808291982338492e-01  -2.9107046889008337e-01  -2.8317173436886472e-01  -2.7459051130812229e-01  -2.6555262455743617e-01  -2.5632754014396114e-01  -2.4721926657959159e-01  -2.3868649155837443e-01  -2.3110325990761652e-01  -2.2570392968588213e-01  -2.2193997723550812e-01  -2.2545125719353190e-01  -2.2302531236389186e-01  -2.5350905306397092e-01  -1.8576890968598386e-01  -3.9282184391920028e-01  -3.5795181298257922e-01  -3.2555297485256302e-01  -2.9763988982931788e-01  -2.6066902535076919e-01  -2.2136585230134165e-01  -1.7864620138427834e-01  -1.3363013220135711e-01  -8.7171469834233684e-02  -4.0326259660260835e-02  5.8110460144470688e-03  5.0115550943350136e-02  9.1473474704302601e-02  1.2882697428166690e-01  1.6122313740403757e-01  1.8786237700596942e-01  2.0814126081449782e-01  2.2168504046546167e-01  2.2836621086962952e-01  2.2830669305411702e-01  2.2186293519557318e-01  2.0959486096861032e-01  1.9222150263612692e-01  1.7056771750796981e-01  1.4550769185789300e-01  1.1791127644575239e-01  8.8598692774084178e-02  5.8307541817859548e-02  2.7673916597255432e-02  -2.7729235180549540e-03  -3.2604732355329152e-02  -6.1480915174076195e-02  -8.9131563319508209e-02  -1.1534040377371481e-01  -1.3993029162380208e-01  -1.6275268836751602e-01  -1.8368150433899463e-01  -2.0261073163149063e-01  -2.1945482972923253e-01  -2.3415056857472044e-01  -2.4665922944352026e-01  -2.5696825209029378e-01  -2.6509186016852959e-01  -2.7107042513856494e-01  -2.7496870962937381e-01  -2.7687322201012543e-01  -2.7688917816224334e-01  -2.7513753301067728e-01  -2.7175267097973599e-01  -2.6688117246945520e-01  -2.6068202822067893e-01  -2.5332855356123252e-01  -2.4501173956391756e-01  -2.3594657784159748e-01  -2.2637660576123383e-01  -2.1659543312570398e-01  -2.0692795407213033e-01  -1.9786862966744617e-01  -1.8976098213534018e-01  -1.8395026178814072e-01  -1.7939783424758560e-01  -1.8261301166611668e-01  -1.7635428212631252e-01  -2.0821449066055317e-01  -1.1976870786744186e-01  -3.5795181298257922e-01  -3.1816888166811741e-01  -3.4357007034198750e-01  -3.0209098277805591e-01  -2.6443246077369154e-01  -2.2444588869021578e-01  -1.8247539818799385e-01  -1.3913352483378633e-01  -9.5111275711728574e-02  -5.1240530538501146e-02  -8.4078451027204751e-03  3.2469917206910608e-02  7.0487444773457336e-02  1.0478998717726598e-01  1.3461357920351136e-01  1.5932311531325549e-01  1.7844495523082016e-01  1.9169085025075011e-01  1.9897053744458520e-01  2.0039153499390844e-01  1.9624590591001564e-01  1.8698527859687850e-01  1.7318662375267885e-01  1.5551239113026566e-01  1.3466906374631410e-01  1.1136821026565737e-01  8.6293410065651527e-02  6.0075389593546087e-02  3.3276341768319319e-02  6.3831340916338866e-03  -2.0191966946386863e-02  -4.6105103054204837e-02  -7.1071465530591557e-02  -9.4854965755045664e-02  -1.1725866577329862e-01  -1.3811713168443401e-01  -1.5729116794012835e-01  -1.7466488607419164e-01  -1.9014458926748173e-01  -2.0365884116292174e-01  -2.1515898763549510e-01  -2.2461962031424593e-01  -2.3203855379654262e-01  -2.3743620421085054e-01  -2.4085433087982450e-01  -2.4235437158044090e-01  -2.4201558492558697e-01  -2.3993340272506383e-01  -2.3621827359748160e-01  -2.3099539099876784e-01  -2.2440544893324657e-01  -2.1660678780191572e-01  -2.0777851624290736e-01  -1.9812661533634457e-01  -1.8788722479780567e-01  -1.7734953870506487e-01  -1.6682806190644414e-01  -1.5682380342546234e-01  -1.4761597514228764e-01  -1.4066004977394800e-01  -1.3437208470377365e-01  -1.3633609135287858e-01  -1.2507557621729717e-01  -1.5805435916392779e-01  -4.8974434923828726e-02  -3.1816888166811741e-01  -2.7500188571570405e-01  -3.6334503718022182e-01  -3.0864751276470626e-01  -2.7082508555747131e-01  -2.3009722062201576e-01  -1.8861175240243833e-01  -1.4650694711355211e-01  -1.0432389215960201e-01  -6.2708223174759006e-02  -2.2375298889194768e-02  1.5929034346509597e-02  5.1465671118687287e-02  8.3536808538917817e-02  1.1151988176671672e-01  1.3489856094943412e-01  1.5328885487525545e-01  1.6645805338451611e-01  1.7433469318719727e-01  1.7700847968748584e-01  1.7472010775720673e-01  1.6784198794230831e-01  1.5685185304026283e-01  1.4230194023758530e-01  1.2478678148831639e-01  1.0491257378826944e-01  8.3270626794227046e-02  6.0416637625833776e-02  3.6856620731058248e-02  1.3039429514348914e-02  -1.0644964055713191e-02  -3.3862774864435050e-02  -5.6330883247177242e-02  -7.7810031961722134e-02  -9.8098039155531752e-02  -1.1702393205332559e-01  -1.3444347556685660e-01  -1.5023617832128347e-01  -1.6430356883365901e-01  -1.7656836569221193e-01  -1.8697412781296124e-01  -1.9548501295489448e-01  -2.0208538945822743e-01  -2.0677916895797338e-01  -2.0958886218102410e-01  -2.1055446078601286e-01  -2.0973233593195112e-01  -2.0719436861074519e-01  -2.0302755640151759e-01  -1.9733429759889468e-01  -1.9023349989789051e-01  -1.8186277070752604e-01  -1.7238130996994605e-01  -1.6197572334022511e-01  -1.5086214890960542e-01  -1.3931065132546680e-01  -1.2760858777690082e-01  -1.1624729254517048e-01  -1.0542083611315724e-01  -9.6698348474341791e-02  -8.7908796463654085e-02  -8.7882632428486054e-02  -7.0751018354174300e-02  -1.0471425117471130e-01  2.4689564818942647e-02  -2.7500188571570405e-01  -2.3010970857146035e-01  -3.8366289613036519e-01  -3.1619288160940417e-01  -2.7887540044069165e-01  -2.3762753283298327e-01  -1.9667309457124377e-01  -1.5568666123501046e-01  -1.1512503341744740e-01  -7.5487433328427611e-02  -3.7347755334565705e-02  -1.3081790944963090e-03  3.2033396229366413e-02  6.2114342600098904e-02  8.8435711292758720e-02  1.1058718150162029e-01  1.2826735335777578e-01  1.4129797131635283e-01  1.4963102733658590e-01  1.5334815348819120e-01  1.5265247977281432e-01  1.4785376531080746e-01  1.3934833849114009e-01  1.2759574253005115e-01  1.1309427468096996e-01  9.6357455359931413e-02  7.7893226994198705e-02  5.8187115840953742e-02  3.7690050740710891e-02  1.6810887692610105e-02  -4.0867924981334777e-03  -2.4684444219658291e-02  -4.4705895879640280e-02  -6.3913311056174385e-02  -8.2102704551122813e-02  -9.9099697214285590e-02  -1.1475595888138661e-01  -1.2894648492016259e-01  -1.4156769349519072e-01  -1.5253614334077253e-01  -1.6178767130490218e-01  -1.6927669704554732e-01  -1.7497556212268320e-01  -1.7887377858224882e-01  -1.8097721913277212e-01  -1.8130727347807665e-01  -1.7990012746841208e-01  -1.7680628012429692e-01  -1.7209048161721185e-01  -1.6583221480770757e-01  -1.5812683821042497e-01  -1.4908763638405695e-01  -1.3884839428006890e-01  -1.2756895051925282e-01  -1.1543632550856973e-01  -1.0269075605445137e-01  -8.9580641687169948e-02  -7.6575536698889515e-02  -6.3770510028272623e-02  -5.2848387017665102e-02  -4.1027851742142643e-02  -3.8507645144983886e-02  -1.4976405415365296e-02  -4.9895134612865238e-02  9.9110803018890595e-02  -2.3010970857146035e-01  -1.8521753142721661e-01  -4.0394923599270771e-01  -3.2406466834235370e-01  -2.8785220040946424e-01  -2.4625681879674807e-01  -2.0584099117666804e-01  -1.6582847705085402e-01  -1.2664198862401771e-01  -8.8661773459530510e-02  -5.2347934517177924e-02  -1.8184763928473693e-02  1.3346213662198373e-02  4.1793230003744755e-02  6.6757857329124440e-02  8.7915226572884406e-02  1.0503003925261313e-01  1.1796757334301954e-01  1.2669901649300871e-01  1.3130087681955746e-01  1.3194861365787017e-01  1.2890519779800780e-01  1.2250566888562241e-01  1.1313914545633882e-01  1.0122981333236611e-01  8.7218449522350860e-02  7.1545762343439845e-02  5.4638542507669002e-02  3.6899156494046452e-02  1.8698533047477029e-02  3.7238556781046648e-04  -1.7779845311897215e-02  -3.5494017982389998e-02  -5.2539015051895233e-02  -6.8713829114386865e-02  -8.3844551861444738e-02  -9.7781611512319913e-02  -1.1039746328278756e-01  -1.2158475402861994e-01  -1.3125492011022782e-01  -1.3933707969279735e-01  -1.4577712163106676e-01  -1.5053686404776931e-01  -1.5359325831603243e-01  -1.5493759858779999e-01  -1.5457481626881589e-01  -1.5252290275241873e-01  -1.4881259152601525e-01  -1.4348737422972879e-01  -1.3660399293636066e-01  -1.2823344909280213e-01  -1.1846283869405744e-01  -1.0739756201849766e-01  -9.5166611697681563e-02  -8.1922838250118091e-02  -6.7870401372777209e-02  -5.3212136806255805e-02  -3.8387366427642386e-02  -2.3385747716168217e-02  -9.9978057524959009e-03  5.1648910651208111e-03  1.0478436300577036e-02  4.0603792175731686e-02  4.6966857762198461e-03  1.7221964730641837e-01  -1.8521753142721661e-01  -1.4205053547480329e-01  -4.2387203055481298e-01  -3.3188021288224495e-01  -2.9725843301726435e-01  -2.5544754379039297e-01  -2.1558614350834251e-01  -1.7643881559671493e-01  -1.3843609908972743e-01  -1.0186518478217084e-01  -6.7097285370831469e-02  -3.4520448863533927e-02  -4.5200370916436026e-03  2.2544410032396756e-02  4.6358496084489588e-02  6.6669238694389898e-02  8.3297654905532231e-02  9.6147184617442635e-02  1.0520761492020621e-01  1.1055438460300258e-01  1.1234350214899219e-01  1.1080260238795886e-01  1.0621899666038702e-01  9.8925741143837759e-02  8.9286877476411897e-02  7.7682932353000625e-02  6.4497655439458262e-02  5.0106707500424987e-02  3.4868759001636315e-02  1.9119136725841732e-02  3.1659165429985254e-03  -1.2711864264147577e-02  -2.8264319922000417e-02  -4.3269653520602962e-02  -5.7532396195568915e-02  -7.0881344913354100e-02  -8.3167498208031737e-02  -9.4262161957462759e-02  -1.0405531250806554e-01  -1.1245420911581473e-01  -1.1938222370927129e-01  -1.2477781321602156e-01  -1.2859359892222172e-01  -1.3079550434343976e-01  -1.3136197316185588e-01  -1.3028327376344670e-01  -1.2756096549884327e-01  -1.2320757594062050e-01  -1.1724658257796090e-01  -1.0971277235543853e-01  -1.0065305639106671e-01  -9.0128008682456504e-02  -7.8213738767548641e-02  -6.5006846891449144e-02  -5.0624011949816972e-02  -3.5230357445606868e-02  -1.8980657625669414e-02  -2.2781075035967309e-03  1.4991862597435875e-02  3.0944841557429610e-02  4.9540748369647253e-02  5.7752514794747287e-02  9.4330934914915621e-02  5.7378044953802707e-02  2.4199199838654784e-01  -1.4205053547480329e-01  -1.0226760416034138e-01  -4.4313541543620266e-01  -3.3942308624578499e-01  -3.0673401836865977e-01  -2.6478476697260306e-01  -2.2547363704069642e-01  -1.8708705213597382e-01  -1.5009813211757847e-01  -1.1472037123442151e-01  -8.1255767050607955e-02  -5.0013829717193238e-02  -2.1300454579894837e-02  4.6016184528392115e-03  2.7448189183926070e-02  4.7046506089720483e-02  6.3265061555415919e-02  7.6040021392519752e-02  8.5378087213434761e-02  9.1355782421928447e-02  9.4115368879932951e-02  9.3857827590361334e-02  9.0833533843318007e-02  8.5331399590857893e-02  7.7667313577870253e-02  6.8172698522813810e-02  5.7183893812269071e-02  4.5032925984211755e-02  3.2040014093249587e-02  1.8507970153281324e-02  4.7184456877116549e-03  -9.0701609632096118e-03  -2.2623436969671375e-02  -3.5730663167204670e-02  -4.8203842284501121e-02  -5.9876340892000675e-02  -7.0601381865473115e-02  -8.0250542157209906e-02  -8.8712348290943002e-02  -9.5891000643282279e-02  -1.0170522403715219e-01  -1.0608722427810310e-01  -1.0898172700352414e-01  -1.1034509077136780e-01  -1.1014449454473067e-01  -1.0835722794644743e-01  -1.0497011800448187e-01  -9.9979147304405103e-02  -9.3389317685754827e-02  -8.5214842641938238e-02  -7.5479724558008277e-02  -6.4219006118129224e-02  -5.1480312470716820e-02  -3.7328453795314541e-02  -2.1844516920108685e-02  -5.1545103109616776e-03  1.2633638702849540e-02  3.1156336266619372e-02  5.0623271844016694e-02  6.9078089620244629e-02  9.0981085702066963e-02  1.0201268736001451e-01  1.4457874389496134e-01  1.0653266112601198e-01  3.0650320074714593e-01  -1.0226760416034138e-01  -6.7397573223720475e-02  -4.6139975394923255e-01  -3.4657441425701713e-01  -3.1599749223911200e-01  -2.7394011449723449e-01  -2.3515611636578859e-01  -1.9743344847901098e-01  -1.6131348036289123e-01  -1.2694945757605117e-01  -9.4589603621971011e-02  -6.4478974471880626e-02  -3.6857356011376227e-02  -1.1942990073096602e-02  1.0079179580822783e-02  2.9067531949513361e-02  4.4931244935943977e-02  5.7635110067426928e-02  6.7201548868976196e-02  7.3709872230804677e-02  7.7292954511039763e-02  7.8131677926166737e-02  7.6447612818853802e-02  7.2494515940332488e-02  6.6549255222291895e-02  5.8902764436131336e-02  4.9851558232354508e-02  3.969022464