<?xml version="1.0"?>
<VTKFile type="UnstructuredGrid"  version="0.1"  >
<UnstructuredGrid>
<Piece  NumberOfPoints="4225" NumberOfCells="8192">
<Points>
<DataArray  type="Float64"  NumberOfComponents="3"  format="ascii">-1 -1 0  -0.96875 -1 0  -0.9375 -1 0  -0.90625 -1 0  -0.875 -1 0  -0.84375 -1 0  -0.8125 -1 0  -0.78125 -1 0  -0.75 -1 0  -0.71875 -1 0  -0.6875 -1 0  -0.65625 -1 0  -0.625 -1 0  -0.59375 -1 0  -0.5625 -1 0  -0.53125 -1 0  -0.5 -1 0  -0.46875 -1 0  -0.4375 -1 0  -0.40625 -1 0  -0.375 -1 0  -0.34375 -1 0  -0.3125 -1 0  -0.28125 -1 0  -0.25 -1 0  -0.21875 -1 0  -0.1875 -1 0  -0.15625 -1 0  -0.125 -1 0  -0.09375 -1 0  -0.0625 -1 0  -0.03125 -1 0  0 -1 0  0.03125 -1 0  0.0625 -1 0  0.09375 -1 0  0.125 -1 0  0.15625 -1 0  0.1875 -1 0  0.21875 -1 0  0.25 -1 0  0.28125 -1 0  0.3125 -1 0  0.34375 -1 0  0.375 -1 0  0.40625 -1 0  0.4375 -1 0  0.46875 -1 0  0.5 -1 0  0.53125 -1 0  0.5625 -1 0  0.59375 -1 0  0.625 -1 0  0.65625 -1 0  0.6875 -1 0  0.71875 -1 0  0.75 -1 0  0.78125 -1 0  0.8125 -1 0  0.84375 -1 0  0.875 -1 0  0.90625 -1 0  0.9375 -1 0  0.96875 -1 0  1 -1 0  -1 -0.96875 0  -0.96875 -0.96875 0  -0.9375 -0.96875 0  -0.90625 -0.96875 0  -0.875 -0.96875 0  -0.84375 -0.96875 0  -0.8125 -0.96875 0  -0.78125 -0.96875 0  -0.75 -0.96875 0  -0.71875 -0.96875 0  -0.6875 -0.96875 0  -0.65625 -0.96875 0  -0.625 -0.96875 0  -0.59375 -0.96875 0  -0.5625 -0.96875 0  -0.53125 -0.96875 0  -0.5 -0.96875 0  -0.46875 -0.96875 0  -0.4375 -0.96875 0  -0.40625 -0.96875 0  -0.375 -0.96875 0  -0.34375 -0.96875 0  -0.3125 -0.96875 0  -0.28125 -0.96875 0  -0.25 -0.96875 0  -0.21875 -0.96875 0  -0.1875 -0.96875 0  -0.15625 -0.96875 0  -0.125 -0.96875 0  -0.09375 -0.96875 0  -0.0625 -0.96875 0  -0.03125 -0.96875 0  0 -0.96875 0  0.03125 -0.96875 0  0.0625 -0.96875 0  0.09375 -0.96875 0  0.125 -0.96875 0  0.15625 -0.96875 0  0.1875 -0.96875 0  0.21875 -0.96875 0  0.25 -0.96875 0  0.28125 -0.96875 0  0.3125 -0.96875 0  0.34375 -0.96875 0  0.375 -0.96875 0  0.40625 -0.96875 0  0.4375 -0.96875 0  0.46875 -0.96875 0  0.5 -0.96875 0  0.53125 -0.96875 0  0.5625 -0.96875 0  0.59375 -0.96875 0  0.625 -0.96875 0  0.65625 -0.96875 0  0.6875 -0.96875 0  0.71875 -0.96875 0  0.75 -0.96875 0  0.78125 -0.96875 0  0.8125 -0.96875 0  0.84375 -0.96875 0  0.875 -0.96875 0  0.90625 -0.96875 0  0.9375 -0.96875 0  0.96875 -0.96875 0  1 -0.96875 0  -1 -0.9375 0  -0.96875 -0.9375 0  -0.9375 -0.9375 0  -0.90625 -0.9375 0  -0.875 -0.9375 0  -0.84375 -0.9375 0  -0.8125 -0.9375 0  -0.78125 -0.9375 0  -0.75 -0.9375 0  -0.71875 -0.9375 0  -0.6875 -0.9375 0  -0.65625 -0.9375 0  -0.625 -0.9375 0  -0.59375 -0.9375 0  -0.5625 -0.9375 0  -0.53125 -0.9375 0  -0.5 -0.9375 0  -0.46875 -0.9375 0  -0.4375 -0.9375 0  -0.40625 -0.9375 0  -0.375 -0.9375 0  -0.34375 -0.9375 0  -0.3125 -0.9375 0  -0.28125 -0.9375 0  -0.25 -0.9375 0  -0.21875 -0.9375 0  -0.1875 -0.9375 0  -0.15625 -0.9375 0  -0.125 -0.9375 0  -0.09375 -0.9375 0  -0.0625 -0.9375 0  -0.03125 -0.9375 0  0 -0.9375 0  0.03125 -0.9375 0  0.0625 -0.9375 0  0.09375 -0.9375 0  0.125 -0.9375 0  0.15625 -0.9375 0  0.1875 -0.9375 0  0.21875 -0.9375 0  0.25 -0.9375 0  0.28125 -0.9375 0  0.3125 -0.9375 0  0.34375 -0.9375 0  0.375 -0.9375 0  0.40625 -0.9375 0  0.4375 -0.9375 0  0.46875 -0.9375 0  0.5 -0.9375 0  0.53125 -0.9375 0  0.5625 -0.9375 0  0.59375 -0.9375 0  0.625 -0.9375 0  0.65625 -0.9375 0  0.6875 -0.9375 0  0.71875 -0.9375 0  0.75 -0.9375 0  0.78125 -0.9375 0  0.8125 -0.9375 0  0.84375 -0.9375 0  0.875 -0.9375 0  0.90625 -0.9375 0  0.9375 -0.9375 0  0.96875 -0.9375 0  1 -0.9375 0  -1 -0.90625 0  -0.96875 -0.90625 0  -0.9375 -0.90625 0  -0.90625 -0.90625 0  -0.875 -0.90625 0  -0.84375 -0.90625 0  -0.8125 -0.90625 0  -0.78125 -0.90625 0  -0.75 -0.90625 0  -0.71875 -0.90625 0  -0.6875 -0.90625 0  -0.65625 -0.90625 0  -0.625 -0.90625 0  -0.59375 -0.90625 0  -0.5625 -0.90625 0  -0.53125 -0.90625 0  -0.5 -0.90625 0  -0.46875 -0.90625 0  -0.4375 -0.90625 0  -0.40625 -0.90625 0  -0.375 -0.90625 0  -0.34375 -0.90625 0  -0.3125 -0.90625 0  -0.28125 -0.90625 0  -0.25 -0.90625 0  -0.21875 -0.90625 0  -0.1875 -0.90625 0  -0.15625 -0.90625 0  -0.125 -0.90625 0  -0.09375 -0.90625 0  -0.0625 -0.90625 0  -0.03125 -0.90625 0  0 -0.90625 0  0.03125 -0.90625 0  0.0625 -0.90625 0  0.09375 -0.90625 0  0.125 -0.90625 0  0.15625 -0.90625 0  0.1875 -0.90625 0  0.21875 -0.90625 0  0.25 -0.90625 0  0.28125 -0.90625 0  0.3125 -0.90625 0  0.34375 -0.90625 0  0.375 -0.90625 0  0.40625 -0.90625 0  0.4375 -0.90625 0  0.46875 -0.90625 0  0.5 -0.90625 0  0.53125 -0.90625 0  0.5625 -0.90625 0  0.59375 -0.90625 0  0.625 -0.90625 0  0.65625 -0.90625 0  0.6875 -0.90625 0  0.71875 -0.90625 0  0.75 -0.90625 0  0.78125 -0.90625 0  0.8125 -0.90625 0  0.84375 -0.90625 0  0.875 -0.90625 0  0.90625 -0.90625 0  0.9375 -0.90625 0  0.96875 -0.90625 0  1 -0.90625 0  -1 -0.875 0  -0.96875 -0.875 0  -0.9375 -0.875 0  -0.90625 -0.875 0  -0.875 -0.875 0  -0.84375 -0.875 0  -0.8125 -0.875 0  -0.78125 -0.875 0  -0.75 -0.875 0  -0.71875 -0.875 0  -0.6875 -0.875 0  -0.65625 -0.875 0  -0.625 -0.875 0  -0.59375 -0.875 0  -0.5625 -0.875 0  -0.53125 -0.875 0  -0.5 -0.875 0  -0.46875 -0.875 0  -0.4375 -0.875 0  -0.40625 -0.875 0  -0.375 -0.875 0  -0.34375 -0.875 0  -0.3125 -0.875 0  -0.28125 -0.875 0  -0.25 -0.875 0  -0.21875 -0.875 0  -0.1875 -0.875 0  -0.15625 -0.875 0  -0.125 -0.875 0  -0.09375 -0.875 0  -0.0625 -0.875 0  -0.03125 -0.875 0  0 -0.875 0  0.03125 -0.875 0  0.0625 -0.875 0  0.09375 -0.875 0  0.125 -0.875 0  0.15625 -0.875 0  0.1875 -0.875 0  0.21875 -0.875 0  0.25 -0.875 0  0.28125 -0.875 0  0.3125 -0.875 0  0.34375 -0.875 0  0.375 -0.875 0  0.40625 -0.875 0  0.4375 -0.875 0  0.46875 -0.875 0  0.5 -0.875 0  0.53125 -0.875 0  0.5625 -0.875 0  0.59375 -0.875 0  0.625 -0.875 0  0.65625 -0.875 0  0.6875 -0.875 0  0.71875 -0.875 0  0.75 -0.875 0  0.78125 -0.875 0  0.8125 -0.875 0  0.84375 -0.875 0  0.875 -0.875 0  0.90625 -0.875 0  0.9375 -0.875 0  0.96875 -0.875 0  1 -0.875 0  -1 -0.84375 0  -0.96875 -0.84375 0  -0.9375 -0.84375 0  -0.90625 -0.84375 0  -0.875 -0.84375 0  -0.84375 -0.84375 0  -0.8125 -0.84375 0  -0.78125 -0.84375 0  -0.75 -0.84375 0  -0.71875 -0.84375 0  -0.6875 -0.84375 0  -0.65625 -0.84375 0  -0.625 -0.84375 0  -0.59375 -0.84375 0  -0.5625 -0.84375 0  -0.53125 -0.84375 0  -0.5 -0.84375 0  -0.46875 -0.84375 0  -0.4375 -0.84375 0  -0.40625 -0.84375 0  -0.375 -0.84375 0  -0.34375 -0.84375 0  -0.3125 -0.84375 0  -0.28125 -0.84375 0  -0.25 -0.84375 0  -0.21875 -0.84375 0  -0.1875 -0.84375 0  -0.15625 -0.84375 0  -0.125 -0.84375 0  -0.09375 -0.84375 0  -0.0625 -0.84375 0  -0.03125 -0.84375 0  0 -0.84375 0  0.03125 -0.84375 0  0.0625 -0.84375 0  0.09375 -0.84375 0  0.125 -0.84375 0  0.15625 -0.84375 0  0.1875 -0.84375 0  0.21875 -0.84375 0  0.25 -0.84375 0  0.28125 -0.84375 0  0.3125 -0.84375 0  0.34375 -0.84375 0  0.375 -0.84375 0  0.40625 -0.84375 0  0.4375 -0.84375 0  0.46875 -0.84375 0  0.5 -0.84375 0  0.53125 -0.84375 0  0.5625 -0.84375 0  0.59375 -0.84375 0  0.625 -0.84375 0  0.65625 -0.84375 0  0.6875 -0.84375 0  0.71875 -0.84375 0  0.75 -0.84375 0  0.78125 -0.84375 0  0.8125 -0.84375 0  0.84375 -0.84375 0  0.875 -0.84375 0  0.90625 -0.84375 0  0.9375 -0.84375 0  0.96875 -0.84375 0  1 -0.84375 0  -1 -0.8125 0  -0.96875 -0.8125 0  -0.9375 -0.8125 0  -0.90625 -0.8125 0  -0.875 -0.8125 0  -0.84375 -0.8125 0  -0.8125 -0.8125 0  -0.78125 -0.8125 0  -0.75 -0.8125 0  -0.71875 -0.8125 0  -0.6875 -0.8125 0  -0.65625 -0.8125 0  -0.625 -0.8125 0  -0.59375 -0.8125 0  -0.5625 -0.8125 0  -0.53125 -0.8125 0  -0.5 -0.8125 0  -0.46875 -0.8125 0  -0.4375 -0.8125 0  -0.40625 -0.8125 0  -0.375 -0.8125 0  -0.34375 -0.8125 0  -0.3125 -0.8125 0  -0.28125 -0.8125 0  -0.25 -0.8125 0  -0.21875 -0.8125 0  -0.1875 -0.8125 0  -0.15625 -0.8125 0  -0.125 -0.8125 0  -0.09375 -0.8125 0  -0.0625 -0.8125 0  -0.03125 -0.8125 0  0 -0.8125 0  0.03125 -0.8125 0  0.0625 -0.8125 0  0.09375 -0.8125 0  0.125 -0.8125 0  0.15625 -0.8125 0  0.1875 -0.8125 0  0.21875 -0.8125 0  0.25 -0.8125 0  0.28125 -0.8125 0  0.3125 -0.8125 0  0.34375 -0.8125 0  0.375 -0.8125 0  0.40625 -0.8125 0  0.4375 -0.8125 0  0.46875 -0.8125 0  0.5 -0.8125 0  0.53125 -0.8125 0  0.5625 -0.8125 0  0.59375 -0.8125 0  0.625 -0.8125 0  0.65625 -0.8125 0  0.6875 -0.8125 0  0.71875 -0.8125 0  0.75 -0.8125 0  0.78125 -0.8125 0  0.8125 -0.8125 0  0.84375 -0.8125 0  0.875 -0.8125 0  0.90625 -0.8125 0  0.9375 -0.8125 0  0.96875 -0.8125 0  1 -0.8125 0  -1 -0.78125 0  -0.96875 -0.78125 0  -0.9375 -0.78125 0  -0.90625 -0.78125 0  -0.875 -0.78125 0  -0.84375 -0.78125 0  -0.8125 -0.78125 0  -0.78125 -0.78125 0  -0.75 -0.78125 0  -0.71875 -0.78125 0  -0.6875 -0.78125 0  -0.65625 -0.78125 0  -0.625 -0.78125 0  -0.59375 -0.78125 0  -0.5625 -0.78125 0  -0.53125 -0.78125 0  -0.5 -0.78125 0  -0.46875 -0.78125 0  -0.4375 -0.78125 0  -0.40625 -0.78125 0  -0.375 -0.78125 0  -0.34375 -0.78125 0  -0.3125 -0.78125 0  -0.28125 -0.78125 0  -0.25 -0.78125 0  -0.21875 -0.78125 0  -0.1875 -0.78125 0  -0.15625 -0.78125 0  -0.125 -0.78125 0  -0.09375 -0.78125 0  -0.0625 -0.78125 0  -0.03125 -0.78125 0  0 -0.78125 0  0.03125 -0.78125 0  0.0625 -0.78125 0  0.09375 -0.78125 0  0.125 -0.78125 0  0.15625 -0.78125 0  0.1875 -0.78125 0  0.21875 -0.78125 0  0.25 -0.78125 0  0.28125 -0.78125 0  0.3125 -0.78125 0  0.34375 -0.78125 0  0.375 -0.78125 0  0.40625 -0.78125 0  0.4375 -0.78125 0  0.46875 -0.78125 0  0.5 -0.78125 0  0.53125 -0.78125 0  0.5625 -0.78125 0  0.59375 -0.78125 0  0.625 -0.78125 0  0.65625 -0.78125 0  0.6875 -0.78125 0  0.71875 -0.78125 0  0.75 -0.78125 0  0.78125 -0.78125 0  0.8125 -0.78125 0  0.84375 -0.78125 0  0.875 -0.78125 0  0.90625 -0.78125 0  0.9375 -0.78125 0  0.96875 -0.78125 0  1 -0.78125 0  -1 -0.75 0  -0.96875 -0.75 0  -0.9375 -0.75 0  -0.90625 -0.75 0  -0.875 -0.75 0  -0.84375 -0.75 0  -0.8125 -0.75 0  -0.78125 -0.75 0  -0.75 -0.75 0  -0.71875 -0.75 0  -0.6875 -0.75 0  -0.65625 -0.75 0  -0.625 -0.75 0  -0.59375 -0.75 0  -0.5625 -0.75 0  -0.53125 -0.75 0  -0.5 -0.75 0  -0.46875 -0.75 0  -0.4375 -0.75 0  -0.40625 -0.75
[...]
<PointData  Scalars="f_15"> 
<DataArray  type="Float64"  Name="f_15"  format="ascii">-4.7199554415773676e-01  -4.6746091314177884e-01  -4.5403128342079835e-01  -4.3222274813354949e-01  -4.0287339706075337e-01  -3.6711110930483210e-01  -3.2631020952852385e-01  -2.8203865342882356e-01  -2.3599777207886832e-01  -1.8995689072891295e-01  -1.4568533462921276e-01  -1.0488443485290450e-01  -6.9122147096983222e-02  -3.9772796024187200e-02  -1.7964260736938235e-02  -4.5346310159577897e-03  0.0000000000000000e+00  -4.5346310159577897e-03  -1.7964260736938260e-02  -3.9772796024187228e-02  -6.9122147096983291e-02  -1.0488443485290454e-01  -1.4568533462921290e-01  -1.8995689072891309e-01  -2.3599777207886838e-01  -2.8203865342882356e-01  -3.2631020952852380e-01  -3.6711110930483221e-01  -4.0287339706075337e-01  -4.3222274813354949e-01  -4.5403128342079835e-01  -4.6746091314177884e-01  -4.7199554415773676e-01  -4.6746091314177884e-01  -4.5403128342079835e-01  -4.3222274813354949e-01  -4.0287339706075337e-01  -3.6711110930483221e-01  -3.2631020952852380e-01  -2.8203865342882356e-01  -2.3599777207886838e-01  -1.8995689072891309e-01  -1.4568533462921290e-01  -1.0488443485290454e-01  -6.9122147096983291e-02  -3.9772796024187228e-02  -1.7964260736938260e-02  -4.5346310159577897e-03  0.0000000000000000e+00  -4.5346310159577897e-03  -1.7964260736938235e-02  -3.9772796024187200e-02  -6.9122147096983222e-02  -1.0488443485290450e-01  -1.4568533462921276e-01  -1.8995689072891295e-01  -2.3599777207886832e-01  -2.8203865342882356e-01  -3.2631020952852385e-01  -3.6711110930483210e-01  -4.0287339706075337e-01  -4.3222274813354949e-01  -4.5403128342079835e-01  -4.6746091314177884e-01  -4.7199554415773676e-01  -4.6746091314177884e-01  -3.4012127441543705e-01  -2.8826192991003302e-01  -2.1558046311477500e-01  -1.3369437889791880e-01  -4.5724613483193233e-02  4.5572108395606811e-02  1.3782249910899869e-01  2.2881683783207532e-01  3.1643012901547485e-01  3.9860911202975585e-01  4.7340042492666162e-01  5.3900192233796029e-01  5.9382350543097373e-01  6.3654750239199287e-01  6.6618158995459487e-01  6.8209980232035761e-01  6.8406871733815777e-01  6.7225718704798587e-01  6.4722847401709904e-01  6.0991435284745765e-01  5.6157119581332904e-01  5.0371927110809389e-01  4.3806786181893670e-01  3.6643095219206745e-01  2.9064006059084146e-01  2.1246223463832209e-01  1.3353098251838219e-01  5.5296049270590987e-02  -2.1005578089104741e-02  -9.4358988496090312e-02  -1.6396565772903818e-01  -2.2922866404088768e-01  -2.8973379544243227e-01  -3.4522938668143066e-01  -3.9560525684169429e-01  -4.4086980633442013e-01  -4.8112412599230203e-01  -5.1653322183032291e-01  -5.4729582147452061e-01  -5.7361570438783083e-01  -5.9567779230434093e-01  -6.1363206113616753e-01  -6.2758696553521542e-01  -6.3761272543537251e-01  -6.4375300725042162e-01  -6.4604244658103360e-01  -6.4452641875444561e-01  -6.3927948715072491e-01  -6.3041912208129880e-01  -6.1811252057903021e-01  -6.0257536606686057e-01  -5.8406383227208003e-01  -5.6286054730544832e-01  -5.3926483239075829e-01  -5.1357252490422545e-01  -4.8612479996363195e-01  -4.5720490366498817e-01  -4.2758458727245963e-01  -3.9733614664210692e-01  -3.7072490415472364e-01  -3.4384535756351658e-01  -3.4509661446931783e-01  -3.1748676496823530e-01  -4.6746091314177884e-01  -4.5403128342079835e-01  -3.3279479499845033e-01  -3.1582356823671914e-01  -2.6501370181173611e-01  -2.0950747728343896e-01  -1.4904834433253961e-01  -8.5751049135366714e-02  -2.1386177766699863e-02  4.2388389031658459e-02  1.0399802122208410e-01  1.6193733222333845e-01  2.1478348806310579e-01  2.6122894284001674e-01  3.0012501892230498e-01  3.3052808118066218e-01  3.5174151770032858e-01  3.6334810972445947e-01  3.6522917590114617e-01  3.5756804222998373e-01  3.4083688984756588e-01  3.1576704850938403e-01  2.8330443676437461e-01  2.4455321836844240e-01  2.0071259521077764e-01  1.5301281339838294e-01  1.0265716809620359e-01  5.0775895396287574e-02  -1.6041699349814689e-03  -5.3573492667709430e-02  -1.0433980564954312e-01  -1.5321908960391106e-01  -1.9962334210156021e-01  -2.4305006881743316e-01  -2.8307651875099393e-01  -3.1935930968704046e-01  -3.5163831795801415e-01  -3.7974257778045734e-01  -4.0359593362978824e-01  -4.2322043740763238e-01  -4.3873624341647371e-01  -4.5035703602461735e-01  -4.5838054709599241e-01  -4.6317372855919453e-01  -4.6515270927516372e-01  -4.6475801919516246e-01  -4.6242659928568564e-01  -4.5856274848543160e-01  -4.5351109900359426e-01  -4.4753477601813446e-01  -4.4080192539145596e-01  -4.3338283009129885e-01  -4.2525873366549466e-01  -4.1634258744644254e-01  -4.0650855942667258e-01  -3.9563523207748430e-01  -3.8363686143985842e-01  -3.7056808014615711e-01  -3.5652445499680646e-01  -3.4230005263890712e-01  -3.2777696832816827e-01  -3.1780786271320161e-01  -3.0515442843557328e-01  -3.2347126432184975e-01  -2.8153454983391218e-01  -4.5403128342079835e-01  -4.3222274813354949e-01  -3.3985311161141479e-01  -3.1077754187773837e-01  -2.5619385818782675e-01  -1.9924960355809881e-01  -1.3730109797217804e-01  -7.2684361999232311e-02  -6.9723310947955117e-03  5.8270001789841500e-02  1.2151651410532481e-01  1.8127444766878933e-01  2.3610495160263312e-01  2.8466155590155007e-01  3.2574013376774669e-01  3.5833268924233636e-01  3.8167748861975032e-01  3.9529914416816875e-01  3.9903367072137058e-01  3.9303535264969020e-01  3.7776403950468179e-01  3.5395345781306775e-01  3.2256301131748266e-01  2.8471743969006724e-01  2.4164016956387771e-01  1.9458704193660359e-01  1.4478686989393449e-01  9.3393998358856006e-02  4.1455776407191371e-02  -1.0104800750093408e-02  -6.0493439235662527e-02  -1.0903966383585480e-01  -1.5518699478335948e-01  -1.9848196893470405e-01  -2.3856455393644996e-01  -2.7516106943206181e-01  -3.0807944800886961e-01  -3.3720586293902594e-01  -3.6250142008293978e-01  -3.8399775645884099e-01  -4.0179072008869005e-01  -4.1603180317115895e-01  -4.2691738357667325e-01  -4.3467624567344454e-01  -4.3955607302253236e-01  -4.4180983731356782e-01  -4.4168305641297406e-01  -4.3940294643096772e-01  -4.3517031729865052e-01  -4.2915493230855872e-01  -4.2149470952704793e-01  -4.1229903090461389e-01  -4.0165594542189292e-01  -3.8964386855981220e-01  -3.7634538829657094e-01  -3.6187236106128090e-01  -3.4637291338282633e-01  -3.3012994216909414e-01  -3.1339647669632120e-01  -2.9717813624300948e-01  -2.8106429217042628e-01  -2.7062734426820267e-01  -2.5471099397981178e-01  -2.7529426338318025e-01  -2.0481695612475551e-01  -4.3222274813354949e-01  -4.0287339706075337e-01  -3.6038820822739820e-01  -3.1869630722320452e-01  -2.6708181975199491e-01  -2.1334459616287857e-01  -1.5633354131651891e-01  -9.7878988089799626e-02  -3.9117510509252884e-02  1.8687759226776037e-02  7.4309833108267387e-02  1.2655955569531069e-01  1.7430965519945185e-01  2.1652502179294739e-01  2.5229794393528343e-01  2.8088421731924046e-01  3.0173565686800530e-01  3.1452491797263210e-01  3.1915933617868925e-01  3.1578181675143924e-01  3.0475818621563944e-01  2.8665203436728109e-01  2.6218936994108494e-01  2.3221659679050061e-01  1.9765583861376695e-01  1.5946173565851374e-01  1.1858317770125669e-01  7.5932428288386034e-02  3.2362706625558138e-02  -1.1345971930831542e-02  -5.4493995719048567e-02  -9.6464275576259514e-02  -1.3672131373416688e-01  -1.7480895204529637e-01  -2.1034796253404914e-01  -2.4303401027513150e-01  -2.7263592162057948e-01  -2.9899386603490069e-01  -3.2201686442844824e-01  -3.4167913636088532e-01  -3.5801490612315590e-01  -3.7111155354565595e-01  -3.8110113343203839e-01  -3.8815052361424673e-01  -3.9245054763534826e-01  -3.9420464635213742e-01  -3.9361773736424244e-01  -3.9088610649386191e-01  -3.8618918801990842e-01  -3.7968415548149792e-01  -3.7150405354353216e-01  -3.6176010203741832e-01  -3.5054819687777455e-01  -3.3796040477704742e-01  -3.2409833006735617e-01  -3.0909888575912670e-01  -2.9313527902889064e-01  -2.7652576499665332e-01  -2.5950737140679125e-01  -2.4316806843105546e-01  -2.2666635125737042e-01  -2.1638384127334431e-01  -1.9711225886474809e-01  -2.2059743447872127e-01  -1.2380013178497468e-01  -4.0287339706075337e-01  -3.6711110930483210e-01  -3.8704934287717030e-01  -3.3048286027030133e-01  -2.7948051863601475e-01  -2.2592977610333143e-01  -1.7078850116642763e-01  -1.1495847714161839e-01  -5.9320319346920447e-02  -4.8895421741843581e-03  4.7323815183333590e-02  9.6319626736601646e-02  1.4113936949491132e-01  1.8089631910153162e-01  2.1480808396352361e-01  2.4222885642920081e-01  2.6267841108266438e-01  2.7586459025882376e-01  2.8169661938062523e-01  2.8028738707149398e-01  2.7194418226256339e-01  2.5714853203197363e-01  2.3652714409332895e-01  2.1081674664074226e-01  1.8082625939161392e-01  1.4739962489140951e-01  1.1138228570236557e-01  7.3593374871545034e-02  3.4804740212446138e-02  -4.2731844011934944e-03  -4.2999441678361415e-02  -8.0805913483017133e-02  -1.1719751954320265e-01  -1.5175065170011820e-01  -1.8411089571098718e-01  -2.1399060104821407e-01  -2.4116648470348265e-01  -2.6547706836016083e-01  -2.8681967049030888e-01  -3.0514656723189065e-01  -3.2046012564187198e-01  -3.3280674465626048e-01  -3.4226972239935038e-01  -3.4896120673006703e-01  -3.5301366276948931e-01  -3.5457126610771206e-01  -3.5378186589341104e-01  -3.5079006509407257e-01  -3.4573210020983663e-01  -3.3873298790692458e-01  -3.2990640210328914e-01  -3.1935751094515230e-01  -3.0718867710724251e-01  -2.9350878706945366e-01  -2.7844275670273938e-01  -2.6215377816987367e-01  -2.4483361953609994e-01  -2.2682031000960870e-01  -2.0830329773990000e-01  -1.9043494250682147e-01  -1.7187967430726939e-01  -1.6000134922370352e-01  -1.3534423705057702e-01  -1.6069701173813833e-01  -3.6287689030560295e-02  -3.6711110930483210e-01  -3.2631020952852385e-01  -4.1591090367558264e-01  -3.4443698174594251e-01  -2.9479572416434757e-01  -2.4176091224276619e-01  -1.8863902862632065e-01  -1.3556421052226211e-01  -8.3257005386800101e-02  -3.2489157242137863e-02  1.5932735720660691e-02  6.1199708394983704e-02  1.0253547768263040e-01  1.3922532798374138e-01  1.7064416312814706e-01  1.9628210804478174e-01  2.1576607715252349e-01  2.2887561979791221e-01  2.3555148430760992e-01  2.3589608308525592e-01  2.3016566239535766e-01  2.1875494377432994e-01  2.0217557851946730e-01  1.8103042460998156e-01  1.5598579580917563e-01  1.2774392793109490e-01  9.7017508623297680e-02  6.4507721005442276e-02  3.0886575300807476e-02  -3.2162380876143092e-03  -3.7222300841604147e-02  -7.0609878096072151e-02  -1.0291661994589060e-01  -1.3374038076146422e-01  -1.6273880962762333e-01  -1.8962818165796827e-01  -2.1418165347161738e-01  -2.3622701028856327e-01  -2.5564377280323863e-01  -2.7235959517873221e-01  -2.8634580953429151e-01  -2.9761217079443014e-01  -3.0620082200271698e-01  -3.1217974143214022e-01  -3.1563588686191757e-01  -3.1666848267252673e-01  -3.1538279555394944e-01  -3.1188493368002806e-01  -3.0627802608634941e-01  -2.9866026227576670e-01  -2.8912498241848017e-01  -2.7776313943798037e-01  -2.6466782273279910e-01  -2.4994190449533424e-01  -2.3370467025686126e-01  -2.1611220611965595e-01  -1.9733860806316347e-01  -1.7770643585160437e-01  -1.5732156289048194e-01  -1.3739048839141579e-01  -1.1604166991726877e-01  -1.0178310721992687e-01  -7.0712139355797149e-02  -9.7597797772247918e-02  5.4368500395857139e-02  -3.2631020952852385e-01  -2.8203865342882356e-01  -4.4506584878871558e-01  -3.5893362336768925e-01  -3.1118962113996074e-01  -2.5847971435582645e-01  -2.0694695413712311e-01  -1.5601533620156577e-01  -1.0629301052630767e-01  -5.8350574806231160e-02  -1.2829788999458951e-02  2.9617805041983403e-02  6.8360878242368250e-02  1.0281613458208598e-01  1.3247338850452040e-01  1.5691738629169491e-01  1.7584575573484498e-01  1.8908200711189960e-01  1.9658267676474583e-01  1.9843802860811646e-01  1.9486625925897888e-01  1.8620170983247158e-01  1.7287812405282804e-01  1.5540839563885939e-01  1.3436246646360403e-01  1.1034505320858649e-01  8.3974687053471969e-02  5.5865214462195306e-02  2.6610465046033233e-02  -3.2276426598046261e-03  -3.3127686794768990e-02  -6.2614420641520521e-02  -9.1262102472529763e-02  -1.1869604874232695e-01  -1.4459291056970414e-01  -1.6868003334832066e-01  -1.9073411200082033e-01  -2.1057922590358852e-01  -2.2808425852099637e-01  -2.4315966922924542e-01  -2.5575360833040156e-01  -2.6584740160397136e-01  -2.7345051046091129e-01  -2.7859513252906476e-01  -2.8133068695724789e-01  -2.8171847160394020e-01  -2.7982683209196418e-01  -2.7572716574204192e-01  -2.6949109755093775e-01  -2.6118907710046069e-01  -2.5089058951865223e-01  -2.3866612323595926e-01  -2.2459062117755044e-01  -2.0874948610099012e-01  -1.9124264526071558e-01  -1.7220339463870157e-01  -1.5177129111084772e-01  -1.3023724218785956e-01  -1.0760746075296809e-01  -8.5143844444494743e-02  -6.0415521721905889e-02  -4.3197276256367760e-02  -4.9887142031448629e-03  -3.3178616529203654e-02  1.4592788579878146e-01  -2.8203865342882356e-01  -2.3599777207886832e-01  -4.7360950112663053e-01  -3.7304058986276090e-01  -3.2782235620260586e-01  -2.7551935940893096e-01  -2.2548917670622748e-01  -1.7645089970310296e-01  -1.2897781883118378e-01  -8.3483869810482614e-02  -4.0478281077656386e-02  -4.8119652649239046e-04  3.5999020205234322e-02  6.8492553062760086e-02  9.6589993218962292e-02  1.1996080212516745e-01  1.3836794796789331e-01  1.5167815957776273e-01  1.5986737322352446e-01  1.6302107303729058e-01  1.6132966468288240e-01  1.5507927346648331e-01  1.4463881954498378e-01  1.3044435982452773e-01  1.1298194094524915e-01  9.2770100655947374e-02  7.0343139824926834e-02  4.6235973699686454e-02  2.0971172727842033e-02  -4.9515593040060464e-03  -3.1063429358372741e-02  -5.6932324978527404e-02  -8.2166615591576495e-02  -1.0641734340011759e-01  -1.2937914804350181e-01  -1.5079018291598506e-01  -1.7043123645788891e-01  -1.8812414590932416e-01  -2.0372959442778349e-01  -2.1714429423446641e-01  -2.2829762989321761e-01  -2.3714778761785674e-01  -2.4367751781189056e-01  -2.4788963862445201e-01  -2.4980252427132846e-01  -2.4944575870636157e-01  -2.4685625133536282e-01  -2.4207502370808565e-01  -2.3514493103278691e-01  -2.2610946943649665e-01  -2.1501280888452115e-01  -2.0190114279546623e-01  -1.8682507122769537e-01  -1.6984417938855884e-01  -1.5102895396802421e-01  -1.3047862803129009e-01  -1.0828689628417040e-01  -8.4702387329087581e-02  -5.9623731443101492e-02  -3.4368221948952671e-02  -5.9388312153235917e-03  1.4557280944764927e-02  6.0264644750761959e-02  3.0907179503952699e-02  2.3621502076493181e-01  -2.3599777207886832e-01  -1.8995689072891295e-01  -5.0106880248457464e-01  -3.8624781794993185e-01  -3.4410858588186494e-01  -2.9227381254694446e-01  -2.4365636728412604e-01  -1.9626692093721068e-01  -1.5070927100535181e-01  -1.0727354551359075e-01  -6.6367036191859172e-02  -2.8404015293087441e-02  6.2077365136874443e-03  3.7091671330520888e-02  6.3920992293276802e-02  8.6434281645120931e-02  1.0444756169312587e-01  1.1786265431163163e-01  1.2667155527105434e-01  1.3095677917843387e-01  1.3088774570224410e-01  1.2671362891997776e-01  1.1875321918256319e-01  1.0738262837547209e-01  9.3021670753855937e-02  7.6119860486182009e-02  5.7142799540682764e-02  3.6559660566587521e-02  1.4832203926784708e-02  -7.5943735237258975e-03  -3.0298706451191662e-02  -5.2888710077673963e-02  -7.5005399246920665e-02  -9.6325305507600781e-02  -1.1656172077597975e-01  -1.3546498253284955e-01  -1.5282194241512828e-01  -1.6845475317534997e-01  -1.8221903043802090e-01  -1.9400147768118961e-01  -2.0371700727247630e-01  -2.1130546852488730e-01  -2.1672805149874488e-01  -2.1996353886194370e-01  -2.2100452191326220e-01  -2.1985380861460271e-01  -2.1652117011924110e-01  -2.1102064977788332e-01  -2.0336855859327993e-01  -1.9358232226041361e-01  -1.8168020612798769e-01  -1.6768205897086533e-01  -1.5161070402847651e-01  -1.3349531167751058e-01  -1.1337155568587924e-01  -9.1298726910894634e-02  -6.7319498107398026e-02  -4.1634773832440318e-02  -1.4035272826619103e-02  1.4110703010190483e-02  4.6351527773698241e-02  7.0250248481161251e-02  1.2349224121219629e-01  9.3074078795922097e-02  3.2312374686183282e-01  -1.8995689072891295e-01  -1.4568533462921276e-01  -5.2712810700191504e-01  -3.9831196632270149e-01  -3.5967662862053185e-01  -3.0835073056645124e-01  -2.6108836914902023e-01  -2.1516644733487231e-01  -1.7127086217644810e-01  -1.2959514925181270e-01  -9.0471440443882917e-02  -5.4229630951390148e-02  -2.1195541941951290e-02  8.3315415265247713e-03  3.4094003350051805e-02  5.5888876415656694e-02  7.3577667103350425e-02  8.7093056681390696e-02  9.6442370845680803e-02  1.0170779588110285e-01  1.0304351078409309e-01  1.0067001769930368e-01  9.4866163647488580e-02  8.5959415066461570e-02  7.4315066859595547e-02  6.0325022835655225e-02  4.4396786481262412e-02  2.6943151615519766e-02  8.3729984903760969e-03  -1.0916585963217266e-02  -3.0546742517417434e-02  -5.0161850062614602e-02  -6.9433196554067669e-02  -8.8061451652441114e-02  -1.0577809644951587e-01  -1.2234595414049390e-01  -1.3755895577349689e-01  -1.5124123470165424e-01  -1.6324564475746065e-01  -1.7345176203574322e-01  -1.8176345835245172e-01  -1.8810610858720164e-01  -1.9242355102852288e-01  -1.9467489093875626e-01  -1.9483130628881673e-01  -1.9287296779162705e-01  -1.8878624613494707e-01  -1.8256131609208340e-01  -1.7419029667062921e-01  -1.6366599284772634e-01  -1.5098129644142225e-01  -1.3612931673306403e-01  -1.1910394240587800e-01  -9.9902155613528720e-02  -7.8522836703671675e-02  -5.4983180532659097e-02  -2.9273952550328608e-02  -1.5460460367663384e-03  2.8511842778295111e-02  5.9491233678741672e-02  9.5450771254093861e-02  1.2270247607310295e-01  1.8318657634886093e-01  1.5181034220161702e-01  4.0461321662884592e-01  -1.4568533462921276e-01  -1.0488443485290450e-01  -5.5151054433403013e-01  -4.0916378682989996e-01  -3.7428870505113010e-01  -3.2347385340861101e-01  -2.7750400700727867e-01  -2.3289061319684928e-01  -1.9044239583733105e-01  -1.5027588921706669e-01  -1.1266905272381908e-01  -7.7884860578017259e-02  -4.6182708217014076e-02  -1.7798086142875768e-02  7.0691031346435795e-03  2.8265055440033666e-02  4.5689878188889130e-02  5.9302898880937378e-02  6.9125360977912303e-02  7.5240548377572422e-02  7.7791469310635075e-02  7.6976351009451410e-02  7.3042301978682306e-02  6.6277587649076763e-02  5.7003005820607376e-02  4.5562868757076713e-02  3.2316050489399679e-02  1.7627509329690916e-02  1.8605828129708700e-03  -1.4629722774377818e-02  -3.1502347630321482e-02  -4.8434663421103072e-02  -6.5125872766449738e-02  -8.1299397184577876e-02  -9.6704359216801941e-02  -1.1111625906883699e-01  -1.2433694825048819e-01  -1.3619398350993972e-01  -1.4653944191315185e-01  -1.5524826668213229e-01  -1.6221621595422717e-01  -1.6735749337701192e-01  -1.7060214432415338e-01  -1.7189332042250857e-01  -1.7118451132700319e-01  -1.6843686286461235e-01  -1.6361668333778534e-01  -1.5669324457037945e-01  -1.4763695291030357e-01  -1.3641795906918711e-01  -1.2300522117987675e-01  -1.0736611361619125e-01  -8.9466274261492534e-02  -6.9271052611320230e-02  -4.6743291101077472e-02  -2.1858969201339746e-02  5.4404690609505760e-03  3.5053890658838384e-02  6.7382932583439012e-02  1.0099614522615047e-01  1.4039216710882133e-01  1.7078959412857531e-01  2.3789826061466648e-01  2.0568022428608213e-01  4.7873461622893909e-01  -1.0488443485290450e-01  -6.9122147096983222e-02  -5.7392912238483595e-01  -4.1884491120846906e-01  -3.8778957902823202e-01  -3.3745057681294982e-01  -2.9269592321401777e-01  -2.4924790139780137e-01  -2.0806619134892229e-01  -1.6920288612960052e-01  -1.3289745022715480e-01  -9.9359404711988258e-02  -6.8794018026060458e-02  -4.1383747866656384e-02  -1.7279968355864136e-02  3.4052748548156317e-03  2.0605262020735912e-02  3.4302676744136486e-02  4.4531616910404581e-02  5.1377599920859184e-02  5.4975650335553870e-02  5.5506683420473726e-02  5.3192441409907837e-02  4.8289329191280608e-02  4.1081509344400670e-02  3.1873639477553908e-02  2.0983604539609384e-02  8.73555323