<?xml version="1.0"?>
<VTKFile type="UnstructuredGrid"  version="0.1"  >
<UnstructuredGrid>
<Piece  NumberOfPoints="4225" NumberOfCells="8192">
<Points>
<DataArray  type="Float64"  NumberOfComponents="3"  format="ascii">-1 -1 0  -0.96875 -1 0  -0.9375 -1 0  -0.90625 -1 0  -0.875 -1 0  -0.84375 -1 0  -0.8125 -1 0  -0.78125 -1 0  -0.75 -1 0  -0.71875 -1 0  -0.6875 -1 0  -0.65625 -1 0  -0.625 -1 0  -0.59375 -1 0  -0.5625 -1 0  -0.53125 -1 0  -0.5 -1 0  -0.46875 -1 0  -0.4375 -1 0  -0.40625 -1 0  -0.375 -1 0  -0.34375 -1 0  -0.3125 -1 0  -0.28125 -1 0  -0.25 -1 0  -0.21875 -1 0  -0.1875 -1 0  -0.15625 -1 0  -0.125 -1 0  -0.09375 -1 0  -0.0625 -1 0  -0.03125 -1 0  0 -1 0  0.03125 -1 0  0.0625 -1 0  0.09375 -1 0  0.125 -1 0  0.15625 -1 0  0.1875 -1 0  0.21875 -1 0  0.25 -1 0  0.28125 -1 0  0.3125 -1 0  0.34375 -1 0  0.375 -1 0  0.40625 -1 0  0.4375 -1 0  0.46875 -1 0  0.5 -1 0  0.53125 -1 0  0.5625 -1 0  0.59375 -1 0  0.625 -1 0  0.65625 -1 0  0.6875 -1 0  0.71875 -1 0  0.75 -1 0  0.78125 -1 0  0.8125 -1 0  0.84375 -1 0  0.875 -1 0  0.90625 -1 0  0.9375 -1 0  0.96875 -1 0  1 -1 0  -1 -0.96875 0  -0.96875 -0.96875 0  -0.9375 -0.96875 0  -0.90625 -0.96875 0  -0.875 -0.96875 0  -0.84375 -0.96875 0  -0.8125 -0.96875 0  -0.78125 -0.96875 0  -0.75 -0.96875 0  -0.71875 -0.96875 0  -0.6875 -0.96875 0  -0.65625 -0.96875 0  -0.625 -0.96875 0  -0.59375 -0.96875 0  -0.5625 -0.96875 0  -0.53125 -0.96875 0  -0.5 -0.96875 0  -0.46875 -0.96875 0  -0.4375 -0.96875 0  -0.40625 -0.96875 0  -0.375 -0.96875 0  -0.34375 -0.96875 0  -0.3125 -0.96875 0  -0.28125 -0.96875 0  -0.25 -0.96875 0  -0.21875 -0.96875 0  -0.1875 -0.96875 0  -0.15625 -0.96875 0  -0.125 -0.96875 0  -0.09375 -0.96875 0  -0.0625 -0.96875 0  -0.03125 -0.96875 0  0 -0.96875 0  0.03125 -0.96875 0  0.0625 -0.96875 0  0.09375 -0.96875 0  0.125 -0.96875 0  0.15625 -0.96875 0  0.1875 -0.96875 0  0.21875 -0.96875 0  0.25 -0.96875 0  0.28125 -0.96875 0  0.3125 -0.96875 0  0.34375 -0.96875 0  0.375 -0.96875 0  0.40625 -0.96875 0  0.4375 -0.96875 0  0.46875 -0.96875 0  0.5 -0.96875 0  0.53125 -0.96875 0  0.5625 -0.96875 0  0.59375 -0.96875 0  0.625 -0.96875 0  0.65625 -0.96875 0  0.6875 -0.96875 0  0.71875 -0.96875 0  0.75 -0.96875 0  0.78125 -0.96875 0  0.8125 -0.96875 0  0.84375 -0.96875 0  0.875 -0.96875 0  0.90625 -0.96875 0  0.9375 -0.96875 0  0.96875 -0.96875 0  1 -0.96875 0  -1 -0.9375 0  -0.96875 -0.9375 0  -0.9375 -0.9375 0  -0.90625 -0.9375 0  -0.875 -0.9375 0  -0.84375 -0.9375 0  -0.8125 -0.9375 0  -0.78125 -0.9375 0  -0.75 -0.9375 0  -0.71875 -0.9375 0  -0.6875 -0.9375 0  -0.65625 -0.9375 0  -0.625 -0.9375 0  -0.59375 -0.9375 0  -0.5625 -0.9375 0  -0.53125 -0.9375 0  -0.5 -0.9375 0  -0.46875 -0.9375 0  -0.4375 -0.9375 0  -0.40625 -0.9375 0  -0.375 -0.9375 0  -0.34375 -0.9375 0  -0.3125 -0.9375 0  -0.28125 -0.9375 0  -0.25 -0.9375 0  -0.21875 -0.9375 0  -0.1875 -0.9375 0  -0.15625 -0.9375 0  -0.125 -0.9375 0  -0.09375 -0.9375 0  -0.0625 -0.9375 0  -0.03125 -0.9375 0  0 -0.9375 0  0.03125 -0.9375 0  0.0625 -0.9375 0  0.09375 -0.9375 0  0.125 -0.9375 0  0.15625 -0.9375 0  0.1875 -0.9375 0  0.21875 -0.9375 0  0.25 -0.9375 0  0.28125 -0.9375 0  0.3125 -0.9375 0  0.34375 -0.9375 0  0.375 -0.9375 0  0.40625 -0.9375 0  0.4375 -0.9375 0  0.46875 -0.9375 0  0.5 -0.9375 0  0.53125 -0.9375 0  0.5625 -0.9375 0  0.59375 -0.9375 0  0.625 -0.9375 0  0.65625 -0.9375 0  0.6875 -0.9375 0  0.71875 -0.9375 0  0.75 -0.9375 0  0.78125 -0.9375 0  0.8125 -0.9375 0  0.84375 -0.9375 0  0.875 -0.9375 0  0.90625 -0.9375 0  0.9375 -0.9375 0  0.96875 -0.9375 0  1 -0.9375 0  -1 -0.90625 0  -0.96875 -0.90625 0  -0.9375 -0.90625 0  -0.90625 -0.90625 0  -0.875 -0.90625 0  -0.84375 -0.90625 0  -0.8125 -0.90625 0  -0.78125 -0.90625 0  -0.75 -0.90625 0  -0.71875 -0.90625 0  -0.6875 -0.90625 0  -0.65625 -0.90625 0  -0.625 -0.90625 0  -0.59375 -0.90625 0  -0.5625 -0.90625 0  -0.53125 -0.90625 0  -0.5 -0.90625 0  -0.46875 -0.90625 0  -0.4375 -0.90625 0  -0.40625 -0.90625 0  -0.375 -0.90625 0  -0.34375 -0.90625 0  -0.3125 -0.90625 0  -0.28125 -0.90625 0  -0.25 -0.90625 0  -0.21875 -0.90625 0  -0.1875 -0.90625 0  -0.15625 -0.90625 0  -0.125 -0.90625 0  -0.09375 -0.90625 0  -0.0625 -0.90625 0  -0.03125 -0.90625 0  0 -0.90625 0  0.03125 -0.90625 0  0.0625 -0.90625 0  0.09375 -0.90625 0  0.125 -0.90625 0  0.15625 -0.90625 0  0.1875 -0.90625 0  0.21875 -0.90625 0  0.25 -0.90625 0  0.28125 -0.90625 0  0.3125 -0.90625 0  0.34375 -0.90625 0  0.375 -0.90625 0  0.40625 -0.90625 0  0.4375 -0.90625 0  0.46875 -0.90625 0  0.5 -0.90625 0  0.53125 -0.90625 0  0.5625 -0.90625 0  0.59375 -0.90625 0  0.625 -0.90625 0  0.65625 -0.90625 0  0.6875 -0.90625 0  0.71875 -0.90625 0  0.75 -0.90625 0  0.78125 -0.90625 0  0.8125 -0.90625 0  0.84375 -0.90625 0  0.875 -0.90625 0  0.90625 -0.90625 0  0.9375 -0.90625 0  0.96875 -0.90625 0  1 -0.90625 0  -1 -0.875 0  -0.96875 -0.875 0  -0.9375 -0.875 0  -0.90625 -0.875 0  -0.875 -0.875 0  -0.84375 -0.875 0  -0.8125 -0.875 0  -0.78125 -0.875 0  -0.75 -0.875 0  -0.71875 -0.875 0  -0.6875 -0.875 0  -0.65625 -0.875 0  -0.625 -0.875 0  -0.59375 -0.875 0  -0.5625 -0.875 0  -0.53125 -0.875 0  -0.5 -0.875 0  -0.46875 -0.875 0  -0.4375 -0.875 0  -0.40625 -0.875 0  -0.375 -0.875 0  -0.34375 -0.875 0  -0.3125 -0.875 0  -0.28125 -0.875 0  -0.25 -0.875 0  -0.21875 -0.875 0  -0.1875 -0.875 0  -0.15625 -0.875 0  -0.125 -0.875 0  -0.09375 -0.875 0  -0.0625 -0.875 0  -0.03125 -0.875 0  0 -0.875 0  0.03125 -0.875 0  0.0625 -0.875 0  0.09375 -0.875 0  0.125 -0.875 0  0.15625 -0.875 0  0.1875 -0.875 0  0.21875 -0.875 0  0.25 -0.875 0  0.28125 -0.875 0  0.3125 -0.875 0  0.34375 -0.875 0  0.375 -0.875 0  0.40625 -0.875 0  0.4375 -0.875 0  0.46875 -0.875 0  0.5 -0.875 0  0.53125 -0.875 0  0.5625 -0.875 0  0.59375 -0.875 0  0.625 -0.875 0  0.65625 -0.875 0  0.6875 -0.875 0  0.71875 -0.875 0  0.75 -0.875 0  0.78125 -0.875 0  0.8125 -0.875 0  0.84375 -0.875 0  0.875 -0.875 0  0.90625 -0.875 0  0.9375 -0.875 0  0.96875 -0.875 0  1 -0.875 0  -1 -0.84375 0  -0.96875 -0.84375 0  -0.9375 -0.84375 0  -0.90625 -0.84375 0  -0.875 -0.84375 0  -0.84375 -0.84375 0  -0.8125 -0.84375 0  -0.78125 -0.84375 0  -0.75 -0.84375 0  -0.71875 -0.84375 0  -0.6875 -0.84375 0  -0.65625 -0.84375 0  -0.625 -0.84375 0  -0.59375 -0.84375 0  -0.5625 -0.84375 0  -0.53125 -0.84375 0  -0.5 -0.84375 0  -0.46875 -0.84375 0  -0.4375 -0.84375 0  -0.40625 -0.84375 0  -0.375 -0.84375 0  -0.34375 -0.84375 0  -0.3125 -0.84375 0  -0.28125 -0.84375 0  -0.25 -0.84375 0  -0.21875 -0.84375 0  -0.1875 -0.84375 0  -0.15625 -0.84375 0  -0.125 -0.84375 0  -0.09375 -0.84375 0  -0.0625 -0.84375 0  -0.03125 -0.84375 0  0 -0.84375 0  0.03125 -0.84375 0  0.0625 -0.84375 0  0.09375 -0.84375 0  0.125 -0.84375 0  0.15625 -0.84375 0  0.1875 -0.84375 0  0.21875 -0.84375 0  0.25 -0.84375 0  0.28125 -0.84375 0  0.3125 -0.84375 0  0.34375 -0.84375 0  0.375 -0.84375 0  0.40625 -0.84375 0  0.4375 -0.84375 0  0.46875 -0.84375 0  0.5 -0.84375 0  0.53125 -0.84375 0  0.5625 -0.84375 0  0.59375 -0.84375 0  0.625 -0.84375 0  0.65625 -0.84375 0  0.6875 -0.84375 0  0.71875 -0.84375 0  0.75 -0.84375 0  0.78125 -0.84375 0  0.8125 -0.84375 0  0.84375 -0.84375 0  0.875 -0.84375 0  0.90625 -0.84375 0  0.9375 -0.84375 0  0.96875 -0.84375 0  1 -0.84375 0  -1 -0.8125 0  -0.96875 -0.8125 0  -0.9375 -0.8125 0  -0.90625 -0.8125 0  -0.875 -0.8125 0  -0.84375 -0.8125 0  -0.8125 -0.8125 0  -0.78125 -0.8125 0  -0.75 -0.8125 0  -0.71875 -0.8125 0  -0.6875 -0.8125 0  -0.65625 -0.8125 0  -0.625 -0.8125 0  -0.59375 -0.8125 0  -0.5625 -0.8125 0  -0.53125 -0.8125 0  -0.5 -0.8125 0  -0.46875 -0.8125 0  -0.4375 -0.8125 0  -0.40625 -0.8125 0  -0.375 -0.8125 0  -0.34375 -0.8125 0  -0.3125 -0.8125 0  -0.28125 -0.8125 0  -0.25 -0.8125 0  -0.21875 -0.8125 0  -0.1875 -0.8125 0  -0.15625 -0.8125 0  -0.125 -0.8125 0  -0.09375 -0.8125 0  -0.0625 -0.8125 0  -0.03125 -0.8125 0  0 -0.8125 0  0.03125 -0.8125 0  0.0625 -0.8125 0  0.09375 -0.8125 0  0.125 -0.8125 0  0.15625 -0.8125 0  0.1875 -0.8125 0  0.21875 -0.8125 0  0.25 -0.8125 0  0.28125 -0.8125 0  0.3125 -0.8125 0  0.34375 -0.8125 0  0.375 -0.8125 0  0.40625 -0.8125 0  0.4375 -0.8125 0  0.46875 -0.8125 0  0.5 -0.8125 0  0.53125 -0.8125 0  0.5625 -0.8125 0  0.59375 -0.8125 0  0.625 -0.8125 0  0.65625 -0.8125 0  0.6875 -0.8125 0  0.71875 -0.8125 0  0.75 -0.8125 0  0.78125 -0.8125 0  0.8125 -0.8125 0  0.84375 -0.8125 0  0.875 -0.8125 0  0.90625 -0.8125 0  0.9375 -0.8125 0  0.96875 -0.8125 0  1 -0.8125 0  -1 -0.78125 0  -0.96875 -0.78125 0  -0.9375 -0.78125 0  -0.90625 -0.78125 0  -0.875 -0.78125 0  -0.84375 -0.78125 0  -0.8125 -0.78125 0  -0.78125 -0.78125 0  -0.75 -0.78125 0  -0.71875 -0.78125 0  -0.6875 -0.78125 0  -0.65625 -0.78125 0  -0.625 -0.78125 0  -0.59375 -0.78125 0  -0.5625 -0.78125 0  -0.53125 -0.78125 0  -0.5 -0.78125 0  -0.46875 -0.78125 0  -0.4375 -0.78125 0  -0.40625 -0.78125 0  -0.375 -0.78125 0  -0.34375 -0.78125 0  -0.3125 -0.78125 0  -0.28125 -0.78125 0  -0.25 -0.78125 0  -0.21875 -0.78125 0  -0.1875 -0.78125 0  -0.15625 -0.78125 0  -0.125 -0.78125 0  -0.09375 -0.78125 0  -0.0625 -0.78125 0  -0.03125 -0.78125 0  0 -0.78125 0  0.03125 -0.78125 0  0.0625 -0.78125 0  0.09375 -0.78125 0  0.125 -0.78125 0  0.15625 -0.78125 0  0.1875 -0.78125 0  0.21875 -0.78125 0  0.25 -0.78125 0  0.28125 -0.78125 0  0.3125 -0.78125 0  0.34375 -0.78125 0  0.375 -0.78125 0  0.40625 -0.78125 0  0.4375 -0.78125 0  0.46875 -0.78125 0  0.5 -0.78125 0  0.53125 -0.78125 0  0.5625 -0.78125 0  0.59375 -0.78125 0  0.625 -0.78125 0  0.65625 -0.78125 0  0.6875 -0.78125 0  0.71875 -0.78125 0  0.75 -0.78125 0  0.78125 -0.78125 0  0.8125 -0.78125 0  0.84375 -0.78125 0  0.875 -0.78125 0  0.90625 -0.78125 0  0.9375 -0.78125 0  0.96875 -0.78125 0  1 -0.78125 0  -1 -0.75 0  -0.96875 -0.75 0  -0.9375 -0.75 0  -0.90625 -0.75 0  -0.875 -0.75 0  -0.84375 -0.75 0  -0.8125 -0.75 0  -0.78125 -0.75 0  -0.75 -0.75 0  -0.71875 -0.75 0  -0.6875 -0.75 0  -0.65625 -0.75 0  -0.625 -0.75 0  -0.59375 -0.75 0  -0.5625 -0.75 0  -0.53125 -0.75 0  -0.5 -0.75 0  -0.46875 -0.75 0  -0.4375 -0.75 0  -0.40625 -0.75
[...]
<PointData  Scalars="f_15"> 
<DataArray  type="Float64"  Name="f_15"  format="ascii">-4.6976479695587298e-01  -4.6525159753090273e-01  -4.5188543897886213e-01  -4.3017997527707830e-01  -4.0096933522304612e-01  -3.6537606733252664e-01  -3.2476800092961799e-01  -2.8070568123291773e-01  -2.3488239847793646e-01  -1.8905911572295522e-01  -1.4499679602625493e-01  -1.0438872962334625e-01  -6.8795461732826746e-02  -3.9584821678794638e-02  -1.7879357977010728e-02  -4.5131994249702446e-03  0.0000000000000000e+00  -4.5131994249702446e-03  -1.7879357977010752e-02  -3.9584821678794672e-02  -6.8795461732826801e-02  -1.0438872962334630e-01  -1.4499679602625504e-01  -1.8905911572295531e-01  -2.3488239847793649e-01  -2.8070568123291773e-01  -3.2476800092961794e-01  -3.6537606733252675e-01  -4.0096933522304612e-01  -4.3017997527707830e-01  -4.5188543897886219e-01  -4.6525159753090273e-01  -4.6976479695587298e-01  -4.6525159753090273e-01  -4.5188543897886219e-01  -4.3017997527707830e-01  -4.0096933522304612e-01  -3.6537606733252675e-01  -3.2476800092961794e-01  -2.8070568123291773e-01  -2.3488239847793649e-01  -1.8905911572295531e-01  -1.4499679602625504e-01  -1.0438872962334630e-01  -6.8795461732826801e-02  -3.9584821678794672e-02  -1.7879357977010752e-02  -4.5131994249702446e-03  0.0000000000000000e+00  -4.5131994249702446e-03  -1.7879357977010728e-02  -3.9584821678794638e-02  -6.8795461732826746e-02  -1.0438872962334625e-01  -1.4499679602625493e-01  -1.8905911572295522e-01  -2.3488239847793646e-01  -2.8070568123291773e-01  -3.2476800092961799e-01  -3.6537606733252664e-01  -4.0096933522304612e-01  -4.3017997527707830e-01  -4.5188543897886213e-01  -4.6525159753090273e-01  -4.6976479695587298e-01  -4.6525159753090273e-01  -3.3693682290957683e-01  -2.8949855519342682e-01  -2.2160647434899783e-01  -1.4454831301252880e-01  -6.1183532659452242e-02  2.5840402558995348e-02  1.1420432080908796e-01  2.0172655146321625e-01  2.8629808128129058e-01  3.6587672318798176e-01  4.3851878641896530e-01  5.0243156231149988e-01  5.5603372800392770e-01  5.9801430676334022e-01  6.2738377261598466e-01  6.4351338754026965e-01  6.4616030626929422e-01  6.3547708121462310e-01  6.1200450142800422e-01  5.7664714985497612e-01  5.3063129465667846e-01  4.7544572967545112e-01  4.1276750735916984e-01  3.4437680295152628e-01  2.7206744435882729e-01  1.9756171338359213e-01  1.2243839095690846e-01  4.8081370713063266e-02  -2.4347717597604589e-02  -9.3914269528843797e-02  -1.5989841612062852e-01  -2.2177322093860213e-01  -2.7918005039787019e-01  -3.3190509454795608e-01  -3.7985767760846817e-01  -4.2304891380330684e-01  -4.6156866861370771e-01  -4.9556005180668355e-01  -5.2519232353312117e-01  -5.5063491671718678e-01  -5.7203584664251350e-01  -5.8950771654853484e-01  -6.0312315853618825e-01  -6.1292011857072659e-01  -6.1891548744496283e-01  -6.2112440581767303e-01  -6.1958149379551142e-01  -6.1436025727108734e-01  -6.0558710484185851e-01  -5.9344767045909053e-01  -5.7818417952767942e-01  -5.6008515812970860e-01  -5.3946813262840498e-01  -5.1666608726153429e-01  -4.9200260008041663e-01  -4.6583765382261000e-01  -4.3846287921225019e-01  -4.1065329420029373e-01  -3.8252587018005896e-01  -3.5835754725752400e-01  -3.3453202764767237e-01  -3.3873145111643049e-01  -3.1425918002064218e-01  -4.6525159753090273e-01  -4.5188543897886213e-01  -3.2717149464053186e-01  -3.1518910933863931e-01  -2.6797614610278969e-01  -2.1593674977759342e-01  -1.5866417000873514e-01  -9.8216526634515217e-02  -3.6327766766790337e-02  2.5354978053204313e-02  8.5248522263922211e-02  1.4182548920267865e-01  1.9363311484687817e-01  2.3933093413373641e-01  2.7773838234970649e-01  3.0788383304016581e-01  3.2904834060529342e-01  3.4079896741972404e-01  3.4300841344172944e-01  3.3585873207998596e-01  3.1982816996937391e-01  2.9566094366154666e-01  2.6432120294194428e-01  2.2693381413715902e-01  1.8471668866986157e-01  1.3891105553122590e-01  9.0717387565311225e-02  4.1244284508664603e-02  -8.5243331229902519e-03  -5.7742025485431780e-02  -1.0569503511361528e-01  -1.5178571120016515e-01  -1.9551152737697078e-01  -2.3644638499750165e-01  -2.7422861592064113e-01  -3.0855703534474960e-01  -3.3919390868954541e-01  -3.6597206537693988e-01  -3.8880317764371275e-01  -4.0768452112479708e-01  -4.2270246669222583e-01  -4.3403143567854241e-01  -4.4192769838707496e-01  -4.4671747737273881e-01  -4.4877939249207627e-01  -4.4852166558529000e-01  -4.4635556544308991e-01  -4.4266727445644827e-01  -4.3779134559600758e-01  -4.3198902678688644e-01  -4.2543473218116379e-01  -4.1821293502522883e-01  -4.1032652980357626e-01  -4.0171679161782547e-01  -3.9229140967156401e-01  -3.8196582878039631e-01  -3.7069112832394269e-01  -3.5855742166242632e-01  -3.4569059015045156e-01  -3.3291357141432398e-01  -3.2015930232336792e-01  -3.1224277544264112e-01  -3.0222930168970602e-01  -3.2249236867167919e-01  -2.8389595742141049e-01  -4.5188543897886213e-01  -4.3017997527707830e-01  -3.3101009048886221e-01  -3.0751542979094082e-01  -2.5650561932248989e-01  -2.0311884220686566e-01  -1.4439510831191293e-01  -8.2647030523529411e-02  -1.9423515044667626e-02  4.3715861452858176e-02  1.0523533918259077e-01  1.6362071964586405e-01  2.1740378771173977e-01  2.6520490848897221e-01  3.0578688061707726e-01  3.3811195789345838e-01  3.6139434770761841e-01  3.7514179770472506e-01  3.7918141635025510e-01  3.7366665932654985e-01  3.5906407199536922e-01  3.3612020432642942e-01  3.0581096039125272e-01  2.6927766719865320e-01  2.2775591929844949e-01  1.8250449045576284e-01  1.3474168803749142e-01  8.5595308972434905e-02  3.6069848155732873e-02  -1.2968555994791004e-02  -6.0791966646036595e-02  -1.0679991541874792e-01  -1.5050345153452774e-01  -1.9150875845969206e-01  -2.2950359428599387e-01  -2.6424798608613426e-01  -2.9556896280907180e-01  -3.2335804974172716e-01  -3.4756980427179096e-01  -3.6821981924503910e-01  -3.8538103088207221e-01  -3.9917776153609574e-01  -4.0977740181012950e-01  -4.1738011222929272e-01  -4.2220719060309025e-01  -4.2448900729584693e-01  -4.2445348260982729e-01  -4.2231614297046177e-01  -4.1827262606599902e-01  -4.1249436616381024e-01  -4.0512783191080365e-01  -3.9629755539136041e-01  -3.8611266525527987e-01  -3.7467753361369877e-01  -3.6210390467904763e-01  -3.4853438124401337e-01  -3.3414637706513395e-01  -3.1925117988228535e-01  -3.0412447067436671e-01  -2.8979620813937951e-01  -2.7589619407697402e-01  -2.6792947103960729e-01  -2.5507557224627520e-01  -2.7753628896329796e-01  -2.1165002051372359e-01  -4.3017997527707830e-01  -4.0096933522304612e-01  -3.4858837746129001e-01  -3.1296588355649868e-01  -2.6458073914033120e-01  -2.1408416798374413e-01  -1.5994859125444208e-01  -1.0403923444771085e-01  -4.7479440268180059e-02  8.4680477356526476e-03  6.2566587221029465e-02  1.1360796641155824e-01  1.6043837334290162e-01  2.0199156263967946e-01  2.3732751054769519e-01  2.6567200358783383e-01  2.8645224504722983e-01  2.9932401346082416e-01  3.0418681243836104e-01  3.0118486830772129e-01  2.9069331615872290e-01  2.7329064545154708e-01  2.4971993035111287e-01  2.2084273013465586e-01  1.8759023844691314e-01  1.5091644562161996e-01  1.1175739059507948e-01  7.0999393911756234e-02  2.9457500462505035e-02  -1.2136218726853422e-02  -5.3136219247306819e-02  -9.2981351264321430e-02  -1.3118969252901211e-01  -1.6735261784935118e-01  -2.0112964641825454e-01  -2.3224477586087319e-01  -2.6048422522347553e-01  -2.8569504155053355e-01  -3.0778375321402585e-01  -3.2671433655127358e-01  -3.4250489907979048e-01  -3.5522279453516431e-01  -3.6497807209813327e-01  -3.7191543415557254e-01  -3.7620499073973385e-01  -3.7803234280340897e-01  -3.7758860802404298e-01  -3.7506121888917282e-01  -3.7062634640632725e-01  -3.6444386993852546e-01  -3.5665561524325529e-01  -3.4738747877356452e-01  -3.3675540340024285e-01  -3.2487605727154945e-01  -3.1187881017435753e-01  -2.9793047758264435e-01  -2.8323343780545046e-01  -2.6813663011150263e-01  -2.5290199395574070e-01  -2.3865034000542740e-01  -2.2458142441799417e-01  -2.1700472510792218e-01  -2.0108139185412527e-01  -2.2636085074575091e-01  -1.3548432169433711e-01  -4.0096933522304612e-01  -3.6537606733252664e-01  -3.7275090742052625e-01  -3.2260878503898149e-01  -2.7441319111772938e-01  -2.2385619443957702e-01  -1.7132530081181749e-01  -1.1780217819956972e-01  -6.4157190470802233e-02  -1.1411764759206411e-02  3.9413072099998371e-02  8.7299585121058468e-02  1.3126604292539337e-01  1.7039892326669903e-01  2.0388806980310542e-01  2.3106177229664851e-01  2.5141836816805851e-01  2.6465072335888823e-01  2.7066063175488841e-01  2.6956109369735881e-01  2.6166592494427643e-01  2.4746745932702113e-01  2.2760460517081371e-01  2.0282443472563522e-01  1.7394119162181515e-01  1.4179650834134128e-01  1.0722419962372867e-01  7.1021942891844145e-02  3.3931019135803236e-02  -3.3760011844611985e-03  -4.0300697366731378e-02  -7.6319109373140306e-02  -1.1097886510408987e-01  -1.4389488579802978e-01  -1.7474499039120622e-01  -2.0326610592621661e-01  -2.2925129480224687e-01  -2.5254732662091217e-01  -2.7305238024164147e-01  -2.9071333173698977e-01  -3.0552227443627472e-01  -3.1751197465506664e-01  -3.2675027336444673e-01  -3.3333351325673005e-01  -3.3737936410071917e-01  -3.3901941723983936e-01  -3.3839216326619714e-01  -3.3563688547327036e-01  -3.3088913645989043e-01  -3.2427825806510507e-01  -3.1592738874202719e-01  -3.0595618200428021e-01  -2.9448608639307999e-01  -2.8164906593870376e-01  -2.6759598394331163e-01  -2.5251845468046380e-01  -2.3663645195924532e-01  -2.2032039606609258e-01  -2.0378612935946361e-01  -1.8822968268899243e-01  -1.7235675323616287e-01  -1.6346578847598695e-01  -1.4248950618218578e-01  -1.6964098794782553e-01  -5.2479737958018149e-02  -3.6537606733252664e-01  -3.2476800092961799e-01  -3.9949857372942787e-01  -3.3477644651596689e-01  -2.8751128286050381e-01  -2.3724282275586686e-01  -1.8647823073962239e-01  -1.3549383434809770e-01  -8.4996584675953946e-02  -3.5769623672367648e-02  1.1369082836847014e-02  5.5594811226134432e-02  9.6112131550342067e-02  1.3218506232014987e-01  1.6316692360706853e-01  1.8852789833102984e-01  2.0787840326788171e-01  2.2098628397813605e-01  2.2778605594546691e-01  2.2837924225673159e-01  2.2302560564392909e-01  2.1212614602038815e-01  1.9619942593224582e-01  1.7585351955143325e-01  1.5175606200929390e-01  1.2460494293861596e-01  9.5101733044423389e-02  6.3929428685927644e-02  3.1735314284752521e-02  -8.8091790023917221e-04  -3.3374298450016528e-02  -6.5257860538549498e-02  -9.6103160806160243e-02  -1.2553911223187222e-01  -1.5324997201346813e-01  -1.7897307220815659e-01  -2.0249651905106622e-01  -2.2365690224175541e-01  -2.4233681107763763e-01  -2.5846198768902018e-01  -2.7199786932809528e-01  -2.8294547194453112e-01  -2.9133655347815168e-01  -2.9722824673755782e-01  -3.0069732751979650e-01  -3.0183452008779837e-01  -3.0073915972184001e-01  -2.9751472156438269e-01  -2.9226555894826495e-01  -2.8509531346027966e-01  -2.7610717459725237e-01  -2.6540630681449795e-01  -2.5310409641187309e-01  -2.3932543018330407e-01  -2.2421448888369006e-01  -2.0795536766827774e-01  -1.9075063233948958e-01  -1.7295849111972098e-01  -1.5471355748873117e-01  -1.3727941512532302e-01  -1.1882270031164029e-01  -1.0780248145718943e-01  -8.0711585644399397e-02  -1.0941365843906722e-01  3.3986773157893217e-02  -3.2476800092961799e-01  -2.8070568123291773e-01  -4.2683275351252564e-01  -3.4780303041257871e-01  -3.0200047015119785e-01  -2.5185255027356929e-01  -2.0245570648932940e-01  -1.5343226541456115e-01  -1.0536542579851212e-01  -5.8841035546378477e-02  -1.4511586617739771e-02  2.6957148325908904e-02  6.4917659139761746e-02  9.8769211122628778e-02  1.2798419324020091e-01  1.5213130931095248e-01  1.7089478991740653e-01  1.8408833246457529e-01  1.9166269588567736e-01  1.9370627363274934e-01  1.9043858333383032e-01  1.8219725822854368e-01  1.6941973666930579e-01  1.5262130348341887e-01  1.3237137453537545e-01  1.0926991927709472e-01  8.3925675625258586e-02  5.6937406697850440e-02  2.8878924926849112e-02  2.8809466376283205e-04  -2.8340442225289360e-02  -5.6559388763537909e-02  -8.3970507518937643e-02  -1.1022467403553608e-01  -1.3502091001678981e-01  -1.5810484982861739e-01  -1.7926689480596561e-01  -1.9834013480503723e-01  -2.1519800090964894e-01  -2.2975155387958165e-01  -2.4194632586132261e-01  -2.5175866968150479e-01  -2.5919165510623132e-01  -2.6427062126051587e-01  -2.6703858276079284e-01  -2.6755174098423162e-01  -2.6587541103547646e-01  -2.6208066649726169e-01  -2.5624202030611432e-01  -2.4843637919462261e-01  -2.3874345057929230e-01  -2.2724775543907713e-01  -2.1404193861164192e-01  -1.9923264055873180e-01  -1.8294398484423308e-01  -1.6533725338068367e-01  -1.4658103904154993e-01  -1.2700546616012523e-01  -1.0664724857218592e-01  -8.6839494808584855e-02  -6.5181745726222581e-02  -5.1425424472624180e-02  -1.7461077263442329e-02  -4.7497504512077626e-02  1.2175115481790445e-01  -2.8070568123291773e-01  -2.3488239847793646e-01  -4.5381042644215630e-01  -3.6072432291170842e-01  -3.1701671922696090e-01  -2.6709402023545464e-01  -2.1900044126135657e-01  -1.7171124740688237e-01  -1.2576124135679390e-01  -8.1582303676542081e-02  -3.9692822689925855e-02  -6.2552554303621586e-04  3.5097729378178337e-02  6.6992984646609077e-02  9.4636990273690130e-02  1.1768659355123516e-01  1.3589421378639879e-01  1.4911868918495197e-01  1.5733096383216455e-01  1.6061426269543264e-01  1.5915889526717031e-01  1.5325214512118168e-01  1.4326420766950793e-01  1.2963131448906159e-01  1.1283744346435821e-01  9.3395901697665915e-02  7.1832016139029939e-02  4.8667812137153793e-02  2.4409302962036070e-02  -4.6339787751224065e-04  -2.5503186243476302e-02  -5.0300615030664506e-02  -7.4486514046269131e-02  -9.7733062528342476e-02  -1.1975376219063980e-01  -1.4030264241294133e-01  -1.5917294979983726e-01  -1.7619541714100131e-01  -1.9123618158181779e-01  -2.0419431687742179e-01  -2.1499900329001986e-01  -2.2360631007461529e-01  -2.2999568590165301e-01  -2.3416622144138272e-01  -2.3613288750194883e-01  -2.3592289917667222e-01  -2.3357247529617536e-01  -2.2912418318168973e-01  -2.2262511547676789e-01  -2.1412604115731498e-01  -2.0368166104397570e-01  -1.9135207770679555e-01  -1.7720516605521636e-01  -1.6132122947256286e-01  -1.4379456411416178e-01  -1.2475265938333052e-01  -1.0431897493000038e-01  -8.2784904389956629e-02  -6.0080487676825944e-02  -3.7608318468258087e-02  -1.2389565721047697e-02  4.4575549127428438e-03  4.5700269224649356e-02  1.4457876691437525e-02  2.0865742273899932e-01  -2.3488239847793646e-01  -1.8905911572295522e-01  -4.7994970125073128e-01  -3.7300065790813508e-01  -3.3194810260670227e-01  -2.8232844029533083e-01  -2.3546277986034059e-01  -1.8967938062084572e-01  -1.4552701687963124e-01  -1.0331529313236405e-01  -6.3458314051701908e-02  -2.6381111478313540e-02  7.4974785450347302e-03  3.7789462615164492e-02  6.4156978864119571e-02  8.6328559558437573e-02  1.0411176472423221e-01  1.1740192232168284e-01  1.2618663104354969e-01  1.3054594328748231e-01  1.3064830799789171e-01  1.2674273865868158e-01  1.1914783897144228e-01  1.0823861770459030e-01  9.4432039007611851e-02  7.8172350606397628e-02  5.9917048189257346e-02  4.0124228245649346e-02  1.9241782994059552e-02  -2.3012926435346738e-03  -2.4101486289547388e-02  -4.5785391067541661e-02  -6.7012644774667701e-02  -8.7477502605258037e-02  -1.0690934835962329e-01  -1.2507241581364142e-01  -1.4176489641818371e-01  -1.5681757844341582e-01  -1.7009206592470927e-01  -1.8147864094741720e-01  -1.9089377020768614e-01  -1.9827732794353339e-01  -2.0358956765093086e-01  -2.0680797782374152e-01  -2.0792410826175889e-01  -2.0694056605693320e-01  -2.0386830743355366e-01  -1.9872443043429447e-01  -1.9153058099310052e-01  -1.8231212956041512e-01  -1.7109814214780780e-01  -1.5792230906356608e-01  -1.4282443608479684e-01  -1.2585407109157987e-01  -1.0707049345926553e-01  -8.6561611561237803e-02  -6.4400529031492626e-02  -4.0834064615535869e-02  -1.5684308249381464e-02  9.5817593153092288e-03  3.8509995535194200e-02  5.8609997727282613e-02  1.0721048645465626e-01  7.4857208156439786e-02  2.9261508847694978e-01  -1.8905911572295522e-01  -1.4499679602625493e-01  -5.0492845687130450e-01  -3.8435675692444343e-01  -3.4639705690112588e-01  -2.9713479073461130e-01  -2.5145073692602016e-01  -2.0700354498826373e-01  -1.6440583062234781e-01  -1.2387192636098278e-01  -8.5737961239243335e-02  -5.0342633641021525e-02  -1.8020497114728164e-02  1.0920097785950288e-02  3.6212833559758746e-02  5.7646850109805879e-02  7.5076966020474339e-02  8.8430618799596863e-02  9.7711384614653729e-02  1.0299903740247586e-01  1.0444632536111836e-01  1.0227278510758155e-01  9.6756143703656081e-02  8.8221944932632260e-02  7.7032158017864935e-02  6.3573479453171183e-02  4.8246022331405743e-02  3.1452918899299596e-02  1.3591249242255592e-02  -4.9555009722440412e-03  -2.3823373129955930e-02  -4.2672334934364335e-02  -6.1189295133514704e-02  -7.9089938436802398e-02  -9.6119592620121361e-02  -1.1205331566495136e-01  -1.2669536498249548e-01  -1.3987815486608229e-01  -1.5146079420829833e-01  -1.6132725093596040e-01  -1.6938420837227947e-01  -1.7555865009199584e-01  -1.7979526324153161e-01  -1.8205372440897669e-01  -1.8230600066849958e-01  -1.8053375750361930e-01  -1.7672602701632881e-01  -1.7087723331585492e-01  -1.6298570334451321e-01  -1.5305272676019402e-01  -1.4108222146415533e-01  -1.2708110449998286e-01  -1.1106004633483632e-01  -9.3036179782862286e-02  -7.3031884491220042e-02  -5.1093308104688151e-02  -2.7242169439585271e-02  -1.6778344523760357e-03  2.5880388779538601e-02  5.3913221249963249e-02  8.6494373239292391e-02  1.0983382114331211e-01  1.6554134543980303e-01  1.3216456318562569e-01  3.7159257992624473e-01  -1.4499679602625493e-01  -1.0438872962334625e-01  -5.2845526382741026e-01  -3.9468739523854035e-01  -3.6009775499060664e-01  -3.1120705105738244e-01  -2.6665204527109515e-01  -2.2339136715311231e-01  -1.8214140164372816e-01  -1.4304079318151419e-01  -1.0636838765010340e-01  -7.2393962685511029e-02  -4.1383419599852755e-02  -1.3579172128146914e-02  1.0812218959311429e-02  3.1630874415482887e-02  4.8771699717350611e-02  6.2189845844352491e-02  7.1903415553880426e-02  7.7993446305297351e-02  8.0601312803124769e-02  7.9923829016651515e-02  7.6206449960993641e-02  6.9735071500478002e-02  6.0826970114850831e-02  4.9821440110586736e-02  3.7070627221724890e-02  2.2930992712810270e-02  7.7557119723615075e-03  -8.1117826242424491e-03  -2.4343041445690612e-02  -4.0628624580736010e-02  -5.6681006491464035e-02  -7.2236478800907805e-02  -8.7056198899908954e-02  -1.0092651833002858e-01  -1.1365871629225881e-01  -1.2508823317142836e-01  -1.3507348575400527e-01  -1.4349432569500445e-01  -1.5025019890141625e-01  -1.5525806582230384e-01  -1.5845014604547730e-01  -1.5977156876867049e-01  -1.5917800908987656e-01  -1.5663341147237567e-01  -1.5210788840255746e-01  -1.4557588961282766e-01  -1.3701471104451390e-01  -1.2640341191391052e-01  -1.1372215811708673e-01  -9.8952114314541512e-02  -8.2075558627960676e-02  -6.3077829180397435e-02  -4.1945204704180172e-02  -1.8682861993173774e-02  6.7364251658716141e-03  3.4161168579400110e-02  6.3963485030116646e-02  9.4590788946540758e-02  1.3057440790275532e-01  1.5697888468229565e-01  2.1921493641560208e-01  1.8491357755219351e-01  4.4364965601620437e-01  -1.0438872962334625e-01  -6.8795461732826746e-02  -5.5021972742387515e-01  -4.0399547937236774e-01  -3.7286497836431381e-01  -3.2432222892649915e-01  -2.8082961467766460e-01  -2.3862109663805137e-01  -1.9854498297472364e-01  -1.6067698685323709e-01  -1.2525431807516996e-01  -9.2491375278650090e-02  -6.2597829155693077e-02  -3.5761117210273793e-02  -1.2137466869771981e-02  8.1565813954035740e-03  2.5050398099079805e-02  3.8523443120724261e-02  4.8607268592451430e-02  5.5385401871461570e-02  5.8991211389514034e-02  5.9603991115147630e-02  5.7443554104368397e-02  5.2763719276289742e-02  4.5845091497289596e-02  3.6987553117605182e-02  2.6502848188276966e-02  1.470758505