<?xml version="1.0"?>
<VTKFile type="UnstructuredGrid"  version="0.1"  >
<UnstructuredGrid>
<Piece  NumberOfPoints="4225" NumberOfCells="8192">
<Points>
<DataArray  type="Float64"  NumberOfComponents="3"  format="ascii">-1 -1 0  -0.96875 -1 0  -0.9375 -1 0  -0.90625 -1 0  -0.875 -1 0  -0.84375 -1 0  -0.8125 -1 0  -0.78125 -1 0  -0.75 -1 0  -0.71875 -1 0  -0.6875 -1 0  -0.65625 -1 0  -0.625 -1 0  -0.59375 -1 0  -0.5625 -1 0  -0.53125 -1 0  -0.5 -1 0  -0.46875 -1 0  -0.4375 -1 0  -0.40625 -1 0  -0.375 -1 0  -0.34375 -1 0  -0.3125 -1 0  -0.28125 -1 0  -0.25 -1 0  -0.21875 -1 0  -0.1875 -1 0  -0.15625 -1 0  -0.125 -1 0  -0.09375 -1 0  -0.0625 -1 0  -0.03125 -1 0  0 -1 0  0.03125 -1 0  0.0625 -1 0  0.09375 -1 0  0.125 -1 0  0.15625 -1 0  0.1875 -1 0  0.21875 -1 0  0.25 -1 0  0.28125 -1 0  0.3125 -1 0  0.34375 -1 0  0.375 -1 0  0.40625 -1 0  0.4375 -1 0  0.46875 -1 0  0.5 -1 0  0.53125 -1 0  0.5625 -1 0  0.59375 -1 0  0.625 -1 0  0.65625 -1 0  0.6875 -1 0  0.71875 -1 0  0.75 -1 0  0.78125 -1 0  0.8125 -1 0  0.84375 -1 0  0.875 -1 0  0.90625 -1 0  0.9375 -1 0  0.96875 -1 0  1 -1 0  -1 -0.96875 0  -0.96875 -0.96875 0  -0.9375 -0.96875 0  -0.90625 -0.96875 0  -0.875 -0.96875 0  -0.84375 -0.96875 0  -0.8125 -0.96875 0  -0.78125 -0.96875 0  -0.75 -0.96875 0  -0.71875 -0.96875 0  -0.6875 -0.96875 0  -0.65625 -0.96875 0  -0.625 -0.96875 0  -0.59375 -0.96875 0  -0.5625 -0.96875 0  -0.53125 -0.96875 0  -0.5 -0.96875 0  -0.46875 -0.96875 0  -0.4375 -0.96875 0  -0.40625 -0.96875 0  -0.375 -0.96875 0  -0.34375 -0.96875 0  -0.3125 -0.96875 0  -0.28125 -0.96875 0  -0.25 -0.96875 0  -0.21875 -0.96875 0  -0.1875 -0.96875 0  -0.15625 -0.96875 0  -0.125 -0.96875 0  -0.09375 -0.96875 0  -0.0625 -0.96875 0  -0.03125 -0.96875 0  0 -0.96875 0  0.03125 -0.96875 0  0.0625 -0.96875 0  0.09375 -0.96875 0  0.125 -0.96875 0  0.15625 -0.96875 0  0.1875 -0.96875 0  0.21875 -0.96875 0  0.25 -0.96875 0  0.28125 -0.96875 0  0.3125 -0.96875 0  0.34375 -0.96875 0  0.375 -0.96875 0  0.40625 -0.96875 0  0.4375 -0.96875 0  0.46875 -0.96875 0  0.5 -0.96875 0  0.53125 -0.96875 0  0.5625 -0.96875 0  0.59375 -0.96875 0  0.625 -0.96875 0  0.65625 -0.96875 0  0.6875 -0.96875 0  0.71875 -0.96875 0  0.75 -0.96875 0  0.78125 -0.96875 0  0.8125 -0.96875 0  0.84375 -0.96875 0  0.875 -0.96875 0  0.90625 -0.96875 0  0.9375 -0.96875 0  0.96875 -0.96875 0  1 -0.96875 0  -1 -0.9375 0  -0.96875 -0.9375 0  -0.9375 -0.9375 0  -0.90625 -0.9375 0  -0.875 -0.9375 0  -0.84375 -0.9375 0  -0.8125 -0.9375 0  -0.78125 -0.9375 0  -0.75 -0.9375 0  -0.71875 -0.9375 0  -0.6875 -0.9375 0  -0.65625 -0.9375 0  -0.625 -0.9375 0  -0.59375 -0.9375 0  -0.5625 -0.9375 0  -0.53125 -0.9375 0  -0.5 -0.9375 0  -0.46875 -0.9375 0  -0.4375 -0.9375 0  -0.40625 -0.9375 0  -0.375 -0.9375 0  -0.34375 -0.9375 0  -0.3125 -0.9375 0  -0.28125 -0.9375 0  -0.25 -0.9375 0  -0.21875 -0.9375 0  -0.1875 -0.9375 0  -0.15625 -0.9375 0  -0.125 -0.9375 0  -0.09375 -0.9375 0  -0.0625 -0.9375 0  -0.03125 -0.9375 0  0 -0.9375 0  0.03125 -0.9375 0  0.0625 -0.9375 0  0.09375 -0.9375 0  0.125 -0.9375 0  0.15625 -0.9375 0  0.1875 -0.9375 0  0.21875 -0.9375 0  0.25 -0.9375 0  0.28125 -0.9375 0  0.3125 -0.9375 0  0.34375 -0.9375 0  0.375 -0.9375 0  0.40625 -0.9375 0  0.4375 -0.9375 0  0.46875 -0.9375 0  0.5 -0.9375 0  0.53125 -0.9375 0  0.5625 -0.9375 0  0.59375 -0.9375 0  0.625 -0.9375 0  0.65625 -0.9375 0  0.6875 -0.9375 0  0.71875 -0.9375 0  0.75 -0.9375 0  0.78125 -0.9375 0  0.8125 -0.9375 0  0.84375 -0.9375 0  0.875 -0.9375 0  0.90625 -0.9375 0  0.9375 -0.9375 0  0.96875 -0.9375 0  1 -0.9375 0  -1 -0.90625 0  -0.96875 -0.90625 0  -0.9375 -0.90625 0  -0.90625 -0.90625 0  -0.875 -0.90625 0  -0.84375 -0.90625 0  -0.8125 -0.90625 0  -0.78125 -0.90625 0  -0.75 -0.90625 0  -0.71875 -0.90625 0  -0.6875 -0.90625 0  -0.65625 -0.90625 0  -0.625 -0.90625 0  -0.59375 -0.90625 0  -0.5625 -0.90625 0  -0.53125 -0.90625 0  -0.5 -0.90625 0  -0.46875 -0.90625 0  -0.4375 -0.90625 0  -0.40625 -0.90625 0  -0.375 -0.90625 0  -0.34375 -0.90625 0  -0.3125 -0.90625 0  -0.28125 -0.90625 0  -0.25 -0.90625 0  -0.21875 -0.90625 0  -0.1875 -0.90625 0  -0.15625 -0.90625 0  -0.125 -0.90625 0  -0.09375 -0.90625 0  -0.0625 -0.90625 0  -0.03125 -0.90625 0  0 -0.90625 0  0.03125 -0.90625 0  0.0625 -0.90625 0  0.09375 -0.90625 0  0.125 -0.90625 0  0.15625 -0.90625 0  0.1875 -0.90625 0  0.21875 -0.90625 0  0.25 -0.90625 0  0.28125 -0.90625 0  0.3125 -0.90625 0  0.34375 -0.90625 0  0.375 -0.90625 0  0.40625 -0.90625 0  0.4375 -0.90625 0  0.46875 -0.90625 0  0.5 -0.90625 0  0.53125 -0.90625 0  0.5625 -0.90625 0  0.59375 -0.90625 0  0.625 -0.90625 0  0.65625 -0.90625 0  0.6875 -0.90625 0  0.71875 -0.90625 0  0.75 -0.90625 0  0.78125 -0.90625 0  0.8125 -0.90625 0  0.84375 -0.90625 0  0.875 -0.90625 0  0.90625 -0.90625 0  0.9375 -0.90625 0  0.96875 -0.90625 0  1 -0.90625 0  -1 -0.875 0  -0.96875 -0.875 0  -0.9375 -0.875 0  -0.90625 -0.875 0  -0.875 -0.875 0  -0.84375 -0.875 0  -0.8125 -0.875 0  -0.78125 -0.875 0  -0.75 -0.875 0  -0.71875 -0.875 0  -0.6875 -0.875 0  -0.65625 -0.875 0  -0.625 -0.875 0  -0.59375 -0.875 0  -0.5625 -0.875 0  -0.53125 -0.875 0  -0.5 -0.875 0  -0.46875 -0.875 0  -0.4375 -0.875 0  -0.40625 -0.875 0  -0.375 -0.875 0  -0.34375 -0.875 0  -0.3125 -0.875 0  -0.28125 -0.875 0  -0.25 -0.875 0  -0.21875 -0.875 0  -0.1875 -0.875 0  -0.15625 -0.875 0  -0.125 -0.875 0  -0.09375 -0.875 0  -0.0625 -0.875 0  -0.03125 -0.875 0  0 -0.875 0  0.03125 -0.875 0  0.0625 -0.875 0  0.09375 -0.875 0  0.125 -0.875 0  0.15625 -0.875 0  0.1875 -0.875 0  0.21875 -0.875 0  0.25 -0.875 0  0.28125 -0.875 0  0.3125 -0.875 0  0.34375 -0.875 0  0.375 -0.875 0  0.40625 -0.875 0  0.4375 -0.875 0  0.46875 -0.875 0  0.5 -0.875 0  0.53125 -0.875 0  0.5625 -0.875 0  0.59375 -0.875 0  0.625 -0.875 0  0.65625 -0.875 0  0.6875 -0.875 0  0.71875 -0.875 0  0.75 -0.875 0  0.78125 -0.875 0  0.8125 -0.875 0  0.84375 -0.875 0  0.875 -0.875 0  0.90625 -0.875 0  0.9375 -0.875 0  0.96875 -0.875 0  1 -0.875 0  -1 -0.84375 0  -0.96875 -0.84375 0  -0.9375 -0.84375 0  -0.90625 -0.84375 0  -0.875 -0.84375 0  -0.84375 -0.84375 0  -0.8125 -0.84375 0  -0.78125 -0.84375 0  -0.75 -0.84375 0  -0.71875 -0.84375 0  -0.6875 -0.84375 0  -0.65625 -0.84375 0  -0.625 -0.84375 0  -0.59375 -0.84375 0  -0.5625 -0.84375 0  -0.53125 -0.84375 0  -0.5 -0.84375 0  -0.46875 -0.84375 0  -0.4375 -0.84375 0  -0.40625 -0.84375 0  -0.375 -0.84375 0  -0.34375 -0.84375 0  -0.3125 -0.84375 0  -0.28125 -0.84375 0  -0.25 -0.84375 0  -0.21875 -0.84375 0  -0.1875 -0.84375 0  -0.15625 -0.84375 0  -0.125 -0.84375 0  -0.09375 -0.84375 0  -0.0625 -0.84375 0  -0.03125 -0.84375 0  0 -0.84375 0  0.03125 -0.84375 0  0.0625 -0.84375 0  0.09375 -0.84375 0  0.125 -0.84375 0  0.15625 -0.84375 0  0.1875 -0.84375 0  0.21875 -0.84375 0  0.25 -0.84375 0  0.28125 -0.84375 0  0.3125 -0.84375 0  0.34375 -0.84375 0  0.375 -0.84375 0  0.40625 -0.84375 0  0.4375 -0.84375 0  0.46875 -0.84375 0  0.5 -0.84375 0  0.53125 -0.84375 0  0.5625 -0.84375 0  0.59375 -0.84375 0  0.625 -0.84375 0  0.65625 -0.84375 0  0.6875 -0.84375 0  0.71875 -0.84375 0  0.75 -0.84375 0  0.78125 -0.84375 0  0.8125 -0.84375 0  0.84375 -0.84375 0  0.875 -0.84375 0  0.90625 -0.84375 0  0.9375 -0.84375 0  0.96875 -0.84375 0  1 -0.84375 0  -1 -0.8125 0  -0.96875 -0.8125 0  -0.9375 -0.8125 0  -0.90625 -0.8125 0  -0.875 -0.8125 0  -0.84375 -0.8125 0  -0.8125 -0.8125 0  -0.78125 -0.8125 0  -0.75 -0.8125 0  -0.71875 -0.8125 0  -0.6875 -0.8125 0  -0.65625 -0.8125 0  -0.625 -0.8125 0  -0.59375 -0.8125 0  -0.5625 -0.8125 0  -0.53125 -0.8125 0  -0.5 -0.8125 0  -0.46875 -0.8125 0  -0.4375 -0.8125 0  -0.40625 -0.8125 0  -0.375 -0.8125 0  -0.34375 -0.8125 0  -0.3125 -0.8125 0  -0.28125 -0.8125 0  -0.25 -0.8125 0  -0.21875 -0.8125 0  -0.1875 -0.8125 0  -0.15625 -0.8125 0  -0.125 -0.8125 0  -0.09375 -0.8125 0  -0.0625 -0.8125 0  -0.03125 -0.8125 0  0 -0.8125 0  0.03125 -0.8125 0  0.0625 -0.8125 0  0.09375 -0.8125 0  0.125 -0.8125 0  0.15625 -0.8125 0  0.1875 -0.8125 0  0.21875 -0.8125 0  0.25 -0.8125 0  0.28125 -0.8125 0  0.3125 -0.8125 0  0.34375 -0.8125 0  0.375 -0.8125 0  0.40625 -0.8125 0  0.4375 -0.8125 0  0.46875 -0.8125 0  0.5 -0.8125 0  0.53125 -0.8125 0  0.5625 -0.8125 0  0.59375 -0.8125 0  0.625 -0.8125 0  0.65625 -0.8125 0  0.6875 -0.8125 0  0.71875 -0.8125 0  0.75 -0.8125 0  0.78125 -0.8125 0  0.8125 -0.8125 0  0.84375 -0.8125 0  0.875 -0.8125 0  0.90625 -0.8125 0  0.9375 -0.8125 0  0.96875 -0.8125 0  1 -0.8125 0  -1 -0.78125 0  -0.96875 -0.78125 0  -0.9375 -0.78125 0  -0.90625 -0.78125 0  -0.875 -0.78125 0  -0.84375 -0.78125 0  -0.8125 -0.78125 0  -0.78125 -0.78125 0  -0.75 -0.78125 0  -0.71875 -0.78125 0  -0.6875 -0.78125 0  -0.65625 -0.78125 0  -0.625 -0.78125 0  -0.59375 -0.78125 0  -0.5625 -0.78125 0  -0.53125 -0.78125 0  -0.5 -0.78125 0  -0.46875 -0.78125 0  -0.4375 -0.78125 0  -0.40625 -0.78125 0  -0.375 -0.78125 0  -0.34375 -0.78125 0  -0.3125 -0.78125 0  -0.28125 -0.78125 0  -0.25 -0.78125 0  -0.21875 -0.78125 0  -0.1875 -0.78125 0  -0.15625 -0.78125 0  -0.125 -0.78125 0  -0.09375 -0.78125 0  -0.0625 -0.78125 0  -0.03125 -0.78125 0  0 -0.78125 0  0.03125 -0.78125 0  0.0625 -0.78125 0  0.09375 -0.78125 0  0.125 -0.78125 0  0.15625 -0.78125 0  0.1875 -0.78125 0  0.21875 -0.78125 0  0.25 -0.78125 0  0.28125 -0.78125 0  0.3125 -0.78125 0  0.34375 -0.78125 0  0.375 -0.78125 0  0.40625 -0.78125 0  0.4375 -0.78125 0  0.46875 -0.78125 0  0.5 -0.78125 0  0.53125 -0.78125 0  0.5625 -0.78125 0  0.59375 -0.78125 0  0.625 -0.78125 0  0.65625 -0.78125 0  0.6875 -0.78125 0  0.71875 -0.78125 0  0.75 -0.78125 0  0.78125 -0.78125 0  0.8125 -0.78125 0  0.84375 -0.78125 0  0.875 -0.78125 0  0.90625 -0.78125 0  0.9375 -0.78125 0  0.96875 -0.78125 0  1 -0.78125 0  -1 -0.75 0  -0.96875 -0.75 0  -0.9375 -0.75 0  -0.90625 -0.75 0  -0.875 -0.75 0  -0.84375 -0.75 0  -0.8125 -0.75 0  -0.78125 -0.75 0  -0.75 -0.75 0  -0.71875 -0.75 0  -0.6875 -0.75 0  -0.65625 -0.75 0  -0.625 -0.75 0  -0.59375 -0.75 0  -0.5625 -0.75 0  -0.53125 -0.75 0  -0.5 -0.75 0  -0.46875 -0.75 0  -0.4375 -0.75 0  -0.40625 -0.75
[...]
<PointData  Scalars="f_15"> 
<DataArray  type="Float64"  Name="f_15"  format="ascii">-4.5462143641218550e-01  -4.5025372470051528e-01  -4.3731843827714251e-01  -4.1631267294512586e-01  -3.8804366848600541e-01  -3.5359778688770477e-01  -3.1429876406257412e-01  -2.7165683941863678e-01  -2.2731071820609269e-01  -1.8296459699354861e-01  -1.4032267234961140e-01  -1.0102364952448069e-01  -6.6577767926180142e-02  -3.8308763467059651e-02  -1.7302998135042918e-02  -4.3677117116703761e-03  0.0000000000000000e+00  -4.3677117116703761e-03  -1.7302998135042942e-02  -3.8308763467059671e-02  -6.6577767926180184e-02  -1.0102364952448072e-01  -1.4032267234961149e-01  -1.8296459699354872e-01  -2.2731071820609275e-01  -2.7165683941863678e-01  -3.1429876406257407e-01  -3.5359778688770488e-01  -3.8804366848600541e-01  -4.1631267294512586e-01  -4.3731843827714262e-01  -4.5025372470051528e-01  -4.5462143641218550e-01  -4.5025372470051528e-01  -4.3731843827714262e-01  -4.1631267294512586e-01  -3.8804366848600541e-01  -3.5359778688770488e-01  -3.1429876406257407e-01  -2.7165683941863678e-01  -2.2731071820609275e-01  -1.8296459699354872e-01  -1.4032267234961149e-01  -1.0102364952448072e-01  -6.6577767926180184e-02  -3.8308763467059671e-02  -1.7302998135042942e-02  -4.3677117116703761e-03  0.0000000000000000e+00  -4.3677117116703761e-03  -1.7302998135042918e-02  -3.8308763467059651e-02  -6.6577767926180142e-02  -1.0102364952448069e-01  -1.4032267234961140e-01  -1.8296459699354861e-01  -2.2731071820609269e-01  -2.7165683941863678e-01  -3.1429876406257412e-01  -3.5359778688770477e-01  -3.8804366848600541e-01  -4.1631267294512586e-01  -4.3731843827714251e-01  -4.5025372470051528e-01  -4.5462143641218550e-01  -4.5025372470051528e-01  -3.3260650421392041e-01  -3.0922764012884751e-01  -2.6843757492902753e-01  -2.1858578106896201e-01  -1.6102551233222273e-01  -9.7762481677339044e-02  -3.0844388745928569e-02  3.7645999176302229e-02  1.0562932498784548e-01  1.7107944385265711e-01  2.3208022609680187e-01  2.8688250660384501e-01  3.3395617943063588e-01  3.7203456421335412e-01  4.0014971575046582e-01  4.1765832875529080e-01  4.2425816471869765e-01  4.1999499213514108e-01  4.0525962943378302e-01  3.8077424556542017e-01  3.4756626026678655e-01  3.0692755525597515e-01  2.6035628592751081e-01  2.0947948334380481e-01  1.5595742377796551e-01  1.0137614491286477e-01  4.7141254634894082e-02  -5.6084429877497890e-03  -5.6049027560998915e-02  -1.0367055339555552e-01  -1.4823013372412941e-01  -1.8967573111916405e-01  -2.2806422181428701e-01  -2.6349444778641229e-01  -2.9606552561646632e-01  -3.2585905251946073e-01  -3.5293612442137412e-01  -3.7733891674283604e-01  -3.9908998907614129e-01  -4.1818789867275835e-01  -4.3460170319992159e-01  -4.4826883102573278e-01  -4.5909998633139498e-01  -4.6699280218172756e-01  -4.7185322682575792e-01  -4.7362160415024890e-01  -4.7229885887058753e-01  -4.6796794697774879e-01  -4.6080601445327007e-01  -4.5108420746847983e-01  -4.3915352656953999e-01  -4.2541857865819344e-01  -4.1030086822634126e-01  -3.9420685697243907e-01  -3.7749108748452270e-01  -3.6051166618054376e-01  -3.4359711801035514e-01  -3.2764782408223375e-01  -3.1337970837256729e-01  -3.0497972373173876e-01  -3.0028886484117634e-01  -3.1974485862541530e-01  -3.1225978102339436e-01  -4.5025372470051528e-01  -4.3731843827714251e-01  -3.1256352163998347e-01  -3.2444125297661264e-01  -2.9734614110864171e-01  -2.6392912622468251e-01  -2.2324581509341004e-01  -1.7713353024618575e-01  -1.2727765194479529e-01  -7.5436304602675835e-02  -2.3394863121232005e-02  2.7084331523405981e-02  7.4322126202504613e-02  1.1678362361691350e-01  1.5313394117796703e-01  1.8228501271345882e-01  2.0343201195057481e-01  2.1607900547375997e-01  2.2005384012559923e-01  2.1551190572798451e-01  2.0292802941951452e-01  1.8307496212440466e-01  1.5698639864870317e-01  1.2590208947820347e-01  9.1193569650243264e-02  5.4271780855380633e-02  1.6483183561419958e-02  -2.0992544545299280e-02  -5.7225021876803693e-02  -9.1577865539310382e-02  -1.2370498778225519e-01  -1.5350081169211419e-01  -1.8101980650390109e-01  -2.0638799091944171e-01  -2.2972798134707334e-01  -2.5111119470133497e-01  -2.7054062349246794e-01  -2.8795903675030371e-01  -3.0327318314014745e-01  -3.1638411330798710e-01  -3.2721613944914529e-01  -3.3573982402324970e-01  -3.4198701118868130e-01  -3.4605720180543292e-01  -3.4811544924357518e-01  -3.4838230338371007e-01  -3.4711719649213807e-01  -3.4459741974113400e-01  -3.4109589350129804e-01  -3.3686122571606070e-01  -3.3210345898139582e-01  -3.2698781094135543e-01  -3.2163704157999973e-01  -3.1614253359961908e-01  -3.1057989690306342e-01  -3.0503789917770802e-01  -2.9963424118718840e-01  -2.9462095477601696e-01  -2.9030971149037771e-01  -2.8770024840311792e-01  -2.8719869981844931e-01  -2.9297375671252668e-01  -2.9981920873196927e-01  -3.2932127411692746e-01  -3.0945042323382654e-01  -4.3731843827714251e-01  -4.1631267294512586e-01  -2.9919090219285760e-01  -3.0340594999382242e-01  -2.7328233032704535e-01  -2.3973139618593944e-01  -1.9875558316972031e-01  -1.5244449807816468e-01  -1.0227780912166372e-01  -4.9890768888430470e-02  3.0090123316811332e-03  5.4685915099949065e-02  1.0344055196516684e-01  1.4768078811640603e-01  1.8599113648095406e-01  2.1719399180955595e-01  2.4039890787905402e-01  2.5503827398529672e-01  2.6088876598324301e-01  2.5807805894698571e-01  2.4707568271832422e-01  2.2866618339645722e-01  2.0390242847487061e-01  1.7403781153741593e-01  1.4043883342067492e-01  1.0448418719362532e-01  6.7461903970748527e-02  3.0480068564836094e-02  -5.5935476814829004e-03  -4.0153053418119346e-02  -7.2836611801596229e-02  -1.0347816082740625e-01  -1.3204359902258975e-01  -1.5856712398692829e-01  -1.8309971985581461e-01  -2.0567598129582565e-01  -2.2629976532548704e-01  -2.4494509681151744e-01  -2.6156679997601229e-01  -2.7611530444800531e-01  -2.8855124428590018e-01  -2.9885714889743686e-01  -3.0704502547709756e-01  -3.1315978325998195e-01  -3.1727908619149570e-01  -3.1951058346046324e-01  -3.1998756392234812e-01  -3.1886410410594968e-01  -3.1631060202614036e-01  -3.1251039671483699e-01  -3.0765776968296565e-01  -3.0195749637238717e-01  -2.9562550221937306e-01  -2.8889185878564316e-01  -2.8200323725839460e-01  -2.7523948229970557e-01  -2.6891021601101334e-01  -2.6346239665119864e-01  -2.5933004236228857e-01  -2.5767277011211570e-01  -2.5852527067489783e-01  -2.6633478158996254e-01  -2.7235687849354412e-01  -3.0257201957637098e-01  -2.6326500386018276e-01  -4.1631267294512586e-01  -3.8804366848600541e-01  -2.9862649624897286e-01  -2.9340051496775527e-01  -2.6429493380689972e-01  -2.3205073328348166e-01  -1.9394200323512842e-01  -1.5180052652281689e-01  -1.0672160674468166e-01  -6.0038612480295857e-02  -1.3147829472722932e-02  3.2520307026365526e-02  7.5555631301798612e-02  1.1462940830034501e-01  1.4855686852540329e-01  1.7635471472627187e-01  1.9728860822235242e-01  2.1090730512694150e-01  2.1706131989469912e-01  2.1590475147161284e-01  2.0787921728945977e-01  1.9367939136025969e-01  1.7420067241646689e-01  1.5047160738275708e-01  1.2357648248733195e-01  9.4576465106478366e-02  6.4439385174021507e-02  3.3987706552092468e-02  3.8709322599310052e-03  -2.5436381174752113e-02  -5.3615027630345535e-02  -8.0467547455845764e-02  -1.0587933351378724e-01  -1.2978212570742970e-01  -1.5212518925562454e-01  -1.7285671695100757e-01  -1.9191546661265049e-01  -2.0923088256060959e-01  -2.2472894959289069e-01  -2.3834092654764988e-01  -2.5001249829554717e-01  -2.5971166941076113e-01  -2.6743443022479485e-01  -2.7320788822361552e-01  -2.7709092606483993e-01  -2.7917278037819743e-01  -2.7957005824047065e-01  -2.7842290548989312e-01  -2.7589107115476347e-01  -2.7215067185045971e-01  -2.6739226168957581e-01  -2.6182080342905856e-01  -2.5565738716594438e-01  -2.4914439451787693e-01  -2.4255002269467343e-01  -2.3618943039788029e-01  -2.3041571543456221e-01  -2.2574385611768669e-01  -2.2262295078328692e-01  -2.2232762047935375e-01  -2.2445465722385599e-01  -2.3393369285550208e-01  -2.3841502583572730e-01  -2.7003676885068745e-01  -2.1427076044425372e-01  -3.8804366848600541e-01  -3.5359778688770477e-01  -3.0659802054331170e-01  -2.8872287654783391e-01  -2.5769799201577342e-01  -2.2400252697481415e-01  -1.8613014661843388e-01  -1.4520755469274280e-01  -1.0209471975525063e-01  -5.7882359019105128e-02  -1.3727943822272243e-02  2.9161062403894634e-02  6.9577567084376832e-02  1.0636910568200295e-01  1.3849518613601133e-01  1.6508214398510401e-01  1.8547030440078083e-01  1.9924898317829220e-01  2.0627608603912162e-01  2.0668017947879877e-01  2.0084422574283442e-01  1.8937148764427778e-01  1.7303593469321910e-01  1.5272140591048847e-01  1.2935578198799411e-01  1.0384756500123847e-01  7.7032235188111781e-02  4.9634056274803197e-02  2.2246156429161532e-02  -4.6716317519625763e-03  -3.0780484610078828e-02  -5.5840863538737864e-02  -7.9686767816313148e-02  -1.0220069405909755e-01  -1.2329275003472330e-01  -1.4288578434225685e-01  -1.6090698956095792e-01  -1.7728522227015783e-01  -1.9195263740140220e-01  -2.0484889368466400e-01  -2.1592637903984493e-01  -2.2515516867260066e-01  -2.3252696450870800e-01  -2.3805759764797552e-01  -2.4178811702810415e-01  -2.4378462973494597e-01  -2.4413732789735867e-01  -2.4295911990855248e-01  -2.4038440179933998e-01  -2.3656835757779282e-01  -2.3168713620498427e-01  -2.2593922376710046e-01  -2.1954778687396945e-01  -2.1276600873013776e-01  -2.0588047506897963e-01  -1.9923364816764952e-01  -1.9320546647101186e-01  -1.8835731731600991e-01  -1.8511865155720830e-01  -1.8487767342743611e-01  -1.8672737570968101e-01  -1.9629530559140732e-01  -1.9742504285779677e-01  -2.2983942266763790e-01  -1.5648747906887839e-01  -3.5359778688770477e-01  -3.1429876406257412e-01  -3.1955988291478432e-01  -2.8859232811767616e-01  -2.5611676385122895e-01  -2.2122834339240677e-01  -1.8360101135987950e-01  -1.4392946472939649e-01  -1.0291424865046674e-01  -6.1422121374242855e-02  -2.0394073500379827e-02  1.9182947606671257e-02  5.6323278461424042e-02  9.0088617024850215e-02  1.1963544732499252e-01  1.4425967719135538e-01  1.6343452146674642e-01  1.7683801325264406e-01  1.8436728428511270e-01  1.8613802155925319e-01  1.8246881657983260e-01  1.7385172814643871e-01  1.6091182384891603e-01  1.4435987433946276e-01  1.2494317797438968e-01  1.0339969530914959e-01  8.0419919560120734e-02  5.6619525731078965e-02  3.2523987086079113e-02  8.5645707399151210e-03  -1.4916301112811317e-02  -3.7653180771819228e-02  -5.9442305245376081e-02  -8.0125752924449054e-02  -9.9577275601128945e-02  -1.1769128517521638e-01  -1.3437558802607200e-01  -1.4954778603759833e-01  -1.6313465956913092e-01  -1.7507364307169765e-01  -1.8531538020316338e-01  -1.9382657417902344e-01  -2.0059248826491380e-01  -2.0561881169331325e-01  -2.0893273971416343e-01  -2.1058340689821325e-01  -2.1064182920088648e-01  -2.0920069848737211e-01  -2.0637427517439208e-01  -2.0229874139084264e-01  -1.9713315983030322e-01  -1.9106147532782827e-01  -1.8429519029350114e-01  -1.7707925205637720e-01  -1.6969494634191334e-01  -1.6248502057111289e-01  -1.5582630205267006e-01  -1.5029899464027857e-01  -1.4627922082995018e-01  -1.4527035823219361e-01  -1.4580539053706518e-01  -1.5443406909687446e-01  -1.5102788374330922e-01  -1.8405216183722642e-01  -9.3222267422307867e-02  -3.1429876406257412e-01  -2.7165683941863678e-01  -3.3500670207851907e-01  -2.9125374076100324e-01  -2.5781487395571190e-01  -2.2171130756146726e-01  -1.8410777888489324e-01  -1.4529857579664593e-01  -1.0582924894155406e-01  -6.6382666401514814e-02  -2.7722467735477905e-02  9.3457325719045557e-03  4.4015501102888203e-02  7.5519306125884936e-02  1.0316805125852063e-01  1.2638747710958870e-01  1.4474879655962508e-01  1.5799078418928744e-01  1.6603114513116601e-01  1.6896592081784917e-01  1.6705688887870118e-01  1.6070819018101834e-01  1.5043459716680510e-01  1.3682475121251264e-01  1.2050314674916945e-01  1.0209457414007990e-01  8.2194114720487252e-02  6.1344786204248221e-02  4.0023722671920565e-02  1.8636617917785432e-02  -2.4807982314246392e-03  -2.3056086665076293e-02  -4.2870323666921992e-02  -6.1747227907190720e-02  -7.9542857918005902e-02  -9.6137043211700468e-02  -1.1142715894127601e-01  -1.2532434439951320e-01  -1.3775187547427917e-01  -1.4864516324986279e-01  -1.5795277766553772e-01  -1.6563793534356183e-01  -1.7168002573564653e-01  -1.7607590394916905e-01  -1.7884084226584401e-01  -1.8000916052803290e-01  -1.7963466057988056e-01  -1.7779103258903503e-01  -1.7457244198373795e-01  -1.7009448976897124e-01  -1.6449570076400585e-01  -1.5793990058893764e-01  -1.5061913138581176e-01  -1.4275992566984486e-01  -1.3462567824910443e-01  -1.2654449008238045e-01  -1.1887256600515647e-01  -1.1219191933869951e-01  -1.0680200098065298e-01  -1.0432601129220884e-01  -1.0269525213484175e-01  -1.0958163507117998e-01  -1.0076208649025814e-01  -1.3435729461932860e-01  -2.6308453518871896e-02  -2.7165683941863678e-01  -2.2731071820609269e-01  -3.5150985286261949e-01  -2.9550251816132006e-01  -2.6178602876691770e-01  -2.2474983172942350e-01  -1.8727406690628501e-01  -1.4926324498728119e-01  -1.1116797849339137e-01  -7.3526672570879859e-02  -3.6956252268784691e-02  -2.1103395486445913e-03  3.0356950032841029e-02  5.9825732132519426e-02  8.5742986732745718e-02  1.0765159175088314e-01  1.2521403603467735e-01  1.3822897651426949e-01  1.4663928193093204e-01  1.5053084112717302e-01  1.5012235353251729e-01  1.4574714837425734e-01  1.3782895718980873e-01  1.2685404798339200e-01  1.1334244885346288e-01  9.7820803100290732e-02  8.0799031286523965e-02  6.2752251677952078e-02  4.4108679981621803e-02  2.5243431003244620e-02  6.4775329161088722e-03  -1.1918997436206454e-02  -2.9721389013412931e-02  -4.6743031329608088e-02  -6.2828281890978319e-02  -7.7846056347888964e-02  -9.1684773113049331e-02  -1.0424883788814439e-01  -1.1545661896844148e-01  -1.2523962542773054e-01  -1.3354256265523393e-01  -1.4032388241260160e-01  -1.4555656380596871e-01  -1.4922889160674677e-01  -1.5134516726704836e-01  -1.5192630692292974e-01  -1.5101042191241265e-01  -1.4865345880595870e-01  -1.4493005402482756e-01  -1.3993472991771400e-01  -1.3378356736558383e-01  -1.2661671970632890e-01  -1.1860140014137593e-01  -1.0993845533763395e-01  -1.0086422537535686e-01  -9.1681094862696100e-02  -8.2711819360887090e-02  -7.4526832214193400e-02  -6.7332223303156163e-02  -6.2873236379529018e-02  -5.8458950275890827e-02  -6.3041944310804510e-02  -4.8277389086364628e-02  -8.2526188867985434e-02  4.2145422086559498e-02  -2.2731071820609269e-01  -1.8296459699354861e-01  -3.6836667542661455e-01  -3.0059102583619179e-01  -2.6722602870315326e-01  -2.2949115866387940e-01  -1.9220685746348046e-01  -1.5490428007681259e-01  -1.1798303618238648e-01  -8.1862699539979808e-02  -4.7040712812867154e-02  -1.4045383649710641e-02  1.6595005562980467e-02  4.4381879972342671e-02  6.8873160771592279e-02  8.9706489197981257e-02  1.0661771636081686e-01  1.1945353890972556e-01  1.2817740468077954e-01  1.3286834697993635e-01  1.3371294910512554e-01  1.3099133315557557e-01  1.2505854831654079e-01  1.1632318116902179e-01  1.0522510842542923e-01  9.2214295573517818e-02  7.7732194778124028e-02  6.2196886508766931e-02  4.5992533090506854e-02  2.9463210098013434e-02  1.2910693528432209e-02  -3.4045413470752510e-03  -1.9260045080103601e-02  -3.4466816938896201e-02  -4.8864297032011839e-02  -6.2315632197121183e-02  -7.4703664563847597e-02  -8.5927890306164198e-02  -9.5902401344356139e-02  -1.0455471522627953e-01  -1.1182527743389704e-01  -1.1766744289876965e-01  -1.2204771898982558e-01  -1.2494615545619864e-01  -1.2635677001783333e-01  -1.2628802317441626e-01  -1.2476334145524999e-01  -1.2182178413747208e-01  -1.1751891556645437e-01  -1.1192803279806807e-01  -1.0514182087632783e-01  -9.7274866323671244e-02  -8.8466588833767887e-02  -7.8887984704174519e-02  -6.8742976888207047e-02  -5.8301269652280614e-02  -4.7844243580915206e-02  -3.7920655724231214e-02  -2.8634245512524577e-02  -2.1849599870344696e-02  -1.4261472451905184e-02  -1.6201790552417657e-02  4.7013946774608021e-03  -3.0354663998497320e-02  1.1006659101209280e-01  -1.8296459699354861e-01  -1.4032267234961140e-01  -3.8520790836081864e-01  -3.0607453243581256e-01  -2.7357666911176509e-01  -2.3532868588734246e-01  -1.9829572725619890e-01  -1.6163414979471039e-01  -1.2573014135554791e-01  -9.0909530176876349e-02  -5.7574727683495072e-02  -2.6150976360536766e-02  2.9377659975122492e-03  2.9293887958412104e-02  5.2567934628281979e-02  7.2477084927711544e-02  8.8819500910929661e-02  1.0148384898440427e-01  1.1045351781074830e-01  1.1580536983373174e-01  1.1770331158170473e-01  1.1638736075656590e-01  1.1215928585081346e-01  1.0536611533405112e-01  9.6382944669921228e-02  8.5596380651739468e-02  7.3389790244095005e-02  6.0131182535663588e-02  4.6164209770823174e-02  3.1802378083798731e-02  1.7326249154715246e-02  2.9831505777645367e-03  -1.1011229589759575e-02  -2.4470039793498728e-02  -3.7231889572035118e-02  -4.9157424299680515e-02  -6.0126234514691686e-02  -7.0034315760208452e-02  -7.8792169252829752e-02  -8.6323508445567965e-02  -9.2564487081652908e-02  -9.7463312032411653e-02  -1.0098013516189265e-01  -1.0308711229982796e-01  -1.0376858936771224e-01  -1.0302137580867393e-01  -1.0085514003433567e-01  -9.7292955065283140e-02  -9.2372077824791315e-02  -8.6145056146998147e-02  -7.8681273365244067e-02  -7.0069329561129212e-02  -6.0419866192682796e-02  -4.9872300234724852e-02  -3.8595739308272661e-02  -2.6823443854691861e-02  -1.4791664104081765e-02  -3.0199416590841036e-03  8.4910085033094267e-03  1.7767062055888974e-02  2.8686603599416240e-02  2.9517419721918063e-02  5.6424811519695382e-02  2.0386081446980276e-02  1.7543000556852981e-01  -1.4032267234961140e-01  -1.0102364952448069e-01  -4.0174427422053827e-01  -3.1168688281560336e-01  -2.8042967793236812e-01  -2.4178921775147755e-01  -2.0503663443280554e-01  -1.6894217678505766e-01  -1.3391014259798212e-01  -1.0019164321901881e-01  -6.8113354392397685e-02  -3.8015600006169825e-02  -1.0235671477742550e-02  1.4913012270258730e-02  3.7158289403595175e-02  5.6283797066375638e-02  7.2140027665132986e-02  8.4651485746255944e-02  9.3819667343162882e-02  9.9721834261687375e-02  1.0250584311123041e-01  1.0238157787671423e-01  9.9609783496276680e-02  9.4489267587354930e-02  8.7343501196852039e-02  7.8507615894133298e-02  6.8316644962094789e-02  5.7095653668148352e-02  4.5152131604145773e-02  3.2770773926843758e-02  2.0210524723205770e-02  7.7035847016002383e-03  -4.5440455991809011e-03  -1.6350954030560028e-02  -2.7558099533249888e-02  -3.8026380027735875e-02  -4.7634291499607448e-02  -5.6275872212520936e-02  -6.3859035124494173e-02  -7.0304305639254355e-02  -7.5543930646057592e-02  -7.9521294584088326e-02  -8.2190570783200023e-02  -8.3516550482830354e-02  -8.3474606028370729e-02  -8.2050777927712440e-02  -7.9241992611203793e-02  -7.5056449278212950e-02  -6.9514230681186381e-02  -6.2648243913879284e-02  -5.4505587428281634e-02  -4.5149760159074390e-02  -3.4663325624558317e-02  -2.3154513655474183e-02  -1.0757814580311912e-02  2.3307948199569445e-03  1.5919994402402542e-02  2.9524442218966811e-02  4.3238352091601595e-02  5.4996193922906618e-02  6.9173802505564111e-02  7.2709412631876802e-02  1.0518277643730051e-01  6.8007839589380711e-02  2.3632072627535669e-01  -1.0102364952448069e-01  -6.6577767926180142e-02  -4.1764983821838592e-01  -3.1726083292315932e-01  -2.8746181669258619e-01  -2.4849410839883826e-01  -2.1202511443197564e-01  -1.7642406164476857e-01  -1.4213688916448397e-01  -1.0935366489914672e-01  -7.8340692554722285e-02  -4.9367922697301760e-02  -2.2700126127506860e-02  1.4201164982252038e-03  2.2785849183552059e-02  4.1236990492147074e-02  5.6668723270072642e-02  6.9036785469824072e-02  7.8359493505832808e-02  8.4716538204878442e-02  8.8244776050303703e-02  8.9131461745041635e-02  8.7605513554698353e-02  8.3927535212855897e-02  7.8379347612805836e-02  7.1253761493576664e-02  6.2845221660385711e-02  5.3441