<?xml version="1.0"?>
<VTKFile type="UnstructuredGrid"  version="0.1"  >
<UnstructuredGrid>
<Piece  NumberOfPoints="4225" NumberOfCells="8192">
<Points>
<DataArray  type="Float64"  NumberOfComponents="3"  format="ascii">-1 -1 0  -0.96875 -1 0  -0.9375 -1 0  -0.90625 -1 0  -0.875 -1 0  -0.84375 -1 0  -0.8125 -1 0  -0.78125 -1 0  -0.75 -1 0  -0.71875 -1 0  -0.6875 -1 0  -0.65625 -1 0  -0.625 -1 0  -0.59375 -1 0  -0.5625 -1 0  -0.53125 -1 0  -0.5 -1 0  -0.46875 -1 0  -0.4375 -1 0  -0.40625 -1 0  -0.375 -1 0  -0.34375 -1 0  -0.3125 -1 0  -0.28125 -1 0  -0.25 -1 0  -0.21875 -1 0  -0.1875 -1 0  -0.15625 -1 0  -0.125 -1 0  -0.09375 -1 0  -0.0625 -1 0  -0.03125 -1 0  0 -1 0  0.03125 -1 0  0.0625 -1 0  0.09375 -1 0  0.125 -1 0  0.15625 -1 0  0.1875 -1 0  0.21875 -1 0  0.25 -1 0  0.28125 -1 0  0.3125 -1 0  0.34375 -1 0  0.375 -1 0  0.40625 -1 0  0.4375 -1 0  0.46875 -1 0  0.5 -1 0  0.53125 -1 0  0.5625 -1 0  0.59375 -1 0  0.625 -1 0  0.65625 -1 0  0.6875 -1 0  0.71875 -1 0  0.75 -1 0  0.78125 -1 0  0.8125 -1 0  0.84375 -1 0  0.875 -1 0  0.90625 -1 0  0.9375 -1 0  0.96875 -1 0  1 -1 0  -1 -0.96875 0  -0.96875 -0.96875 0  -0.9375 -0.96875 0  -0.90625 -0.96875 0  -0.875 -0.96875 0  -0.84375 -0.96875 0  -0.8125 -0.96875 0  -0.78125 -0.96875 0  -0.75 -0.96875 0  -0.71875 -0.96875 0  -0.6875 -0.96875 0  -0.65625 -0.96875 0  -0.625 -0.96875 0  -0.59375 -0.96875 0  -0.5625 -0.96875 0  -0.53125 -0.96875 0  -0.5 -0.96875 0  -0.46875 -0.96875 0  -0.4375 -0.96875 0  -0.40625 -0.96875 0  -0.375 -0.96875 0  -0.34375 -0.96875 0  -0.3125 -0.96875 0  -0.28125 -0.96875 0  -0.25 -0.96875 0  -0.21875 -0.96875 0  -0.1875 -0.96875 0  -0.15625 -0.96875 0  -0.125 -0.96875 0  -0.09375 -0.96875 0  -0.0625 -0.96875 0  -0.03125 -0.96875 0  0 -0.96875 0  0.03125 -0.96875 0  0.0625 -0.96875 0  0.09375 -0.96875 0  0.125 -0.96875 0  0.15625 -0.96875 0  0.1875 -0.96875 0  0.21875 -0.96875 0  0.25 -0.96875 0  0.28125 -0.96875 0  0.3125 -0.96875 0  0.34375 -0.96875 0  0.375 -0.96875 0  0.40625 -0.96875 0  0.4375 -0.96875 0  0.46875 -0.96875 0  0.5 -0.96875 0  0.53125 -0.96875 0  0.5625 -0.96875 0  0.59375 -0.96875 0  0.625 -0.96875 0  0.65625 -0.96875 0  0.6875 -0.96875 0  0.71875 -0.96875 0  0.75 -0.96875 0  0.78125 -0.96875 0  0.8125 -0.96875 0  0.84375 -0.96875 0  0.875 -0.96875 0  0.90625 -0.96875 0  0.9375 -0.96875 0  0.96875 -0.96875 0  1 -0.96875 0  -1 -0.9375 0  -0.96875 -0.9375 0  -0.9375 -0.9375 0  -0.90625 -0.9375 0  -0.875 -0.9375 0  -0.84375 -0.9375 0  -0.8125 -0.9375 0  -0.78125 -0.9375 0  -0.75 -0.9375 0  -0.71875 -0.9375 0  -0.6875 -0.9375 0  -0.65625 -0.9375 0  -0.625 -0.9375 0  -0.59375 -0.9375 0  -0.5625 -0.9375 0  -0.53125 -0.9375 0  -0.5 -0.9375 0  -0.46875 -0.9375 0  -0.4375 -0.9375 0  -0.40625 -0.9375 0  -0.375 -0.9375 0  -0.34375 -0.9375 0  -0.3125 -0.9375 0  -0.28125 -0.9375 0  -0.25 -0.9375 0  -0.21875 -0.9375 0  -0.1875 -0.9375 0  -0.15625 -0.9375 0  -0.125 -0.9375 0  -0.09375 -0.9375 0  -0.0625 -0.9375 0  -0.03125 -0.9375 0  0 -0.9375 0  0.03125 -0.9375 0  0.0625 -0.9375 0  0.09375 -0.9375 0  0.125 -0.9375 0  0.15625 -0.9375 0  0.1875 -0.9375 0  0.21875 -0.9375 0  0.25 -0.9375 0  0.28125 -0.9375 0  0.3125 -0.9375 0  0.34375 -0.9375 0  0.375 -0.9375 0  0.40625 -0.9375 0  0.4375 -0.9375 0  0.46875 -0.9375 0  0.5 -0.9375 0  0.53125 -0.9375 0  0.5625 -0.9375 0  0.59375 -0.9375 0  0.625 -0.9375 0  0.65625 -0.9375 0  0.6875 -0.9375 0  0.71875 -0.9375 0  0.75 -0.9375 0  0.78125 -0.9375 0  0.8125 -0.9375 0  0.84375 -0.9375 0  0.875 -0.9375 0  0.90625 -0.9375 0  0.9375 -0.9375 0  0.96875 -0.9375 0  1 -0.9375 0  -1 -0.90625 0  -0.96875 -0.90625 0  -0.9375 -0.90625 0  -0.90625 -0.90625 0  -0.875 -0.90625 0  -0.84375 -0.90625 0  -0.8125 -0.90625 0  -0.78125 -0.90625 0  -0.75 -0.90625 0  -0.71875 -0.90625 0  -0.6875 -0.90625 0  -0.65625 -0.90625 0  -0.625 -0.90625 0  -0.59375 -0.90625 0  -0.5625 -0.90625 0  -0.53125 -0.90625 0  -0.5 -0.90625 0  -0.46875 -0.90625 0  -0.4375 -0.90625 0  -0.40625 -0.90625 0  -0.375 -0.90625 0  -0.34375 -0.90625 0  -0.3125 -0.90625 0  -0.28125 -0.90625 0  -0.25 -0.90625 0  -0.21875 -0.90625 0  -0.1875 -0.90625 0  -0.15625 -0.90625 0  -0.125 -0.90625 0  -0.09375 -0.90625 0  -0.0625 -0.90625 0  -0.03125 -0.90625 0  0 -0.90625 0  0.03125 -0.90625 0  0.0625 -0.90625 0  0.09375 -0.90625 0  0.125 -0.90625 0  0.15625 -0.90625 0  0.1875 -0.90625 0  0.21875 -0.90625 0  0.25 -0.90625 0  0.28125 -0.90625 0  0.3125 -0.90625 0  0.34375 -0.90625 0  0.375 -0.90625 0  0.40625 -0.90625 0  0.4375 -0.90625 0  0.46875 -0.90625 0  0.5 -0.90625 0  0.53125 -0.90625 0  0.5625 -0.90625 0  0.59375 -0.90625 0  0.625 -0.90625 0  0.65625 -0.90625 0  0.6875 -0.90625 0  0.71875 -0.90625 0  0.75 -0.90625 0  0.78125 -0.90625 0  0.8125 -0.90625 0  0.84375 -0.90625 0  0.875 -0.90625 0  0.90625 -0.90625 0  0.9375 -0.90625 0  0.96875 -0.90625 0  1 -0.90625 0  -1 -0.875 0  -0.96875 -0.875 0  -0.9375 -0.875 0  -0.90625 -0.875 0  -0.875 -0.875 0  -0.84375 -0.875 0  -0.8125 -0.875 0  -0.78125 -0.875 0  -0.75 -0.875 0  -0.71875 -0.875 0  -0.6875 -0.875 0  -0.65625 -0.875 0  -0.625 -0.875 0  -0.59375 -0.875 0  -0.5625 -0.875 0  -0.53125 -0.875 0  -0.5 -0.875 0  -0.46875 -0.875 0  -0.4375 -0.875 0  -0.40625 -0.875 0  -0.375 -0.875 0  -0.34375 -0.875 0  -0.3125 -0.875 0  -0.28125 -0.875 0  -0.25 -0.875 0  -0.21875 -0.875 0  -0.1875 -0.875 0  -0.15625 -0.875 0  -0.125 -0.875 0  -0.09375 -0.875 0  -0.0625 -0.875 0  -0.03125 -0.875 0  0 -0.875 0  0.03125 -0.875 0  0.0625 -0.875 0  0.09375 -0.875 0  0.125 -0.875 0  0.15625 -0.875 0  0.1875 -0.875 0  0.21875 -0.875 0  0.25 -0.875 0  0.28125 -0.875 0  0.3125 -0.875 0  0.34375 -0.875 0  0.375 -0.875 0  0.40625 -0.875 0  0.4375 -0.875 0  0.46875 -0.875 0  0.5 -0.875 0  0.53125 -0.875 0  0.5625 -0.875 0  0.59375 -0.875 0  0.625 -0.875 0  0.65625 -0.875 0  0.6875 -0.875 0  0.71875 -0.875 0  0.75 -0.875 0  0.78125 -0.875 0  0.8125 -0.875 0  0.84375 -0.875 0  0.875 -0.875 0  0.90625 -0.875 0  0.9375 -0.875 0  0.96875 -0.875 0  1 -0.875 0  -1 -0.84375 0  -0.96875 -0.84375 0  -0.9375 -0.84375 0  -0.90625 -0.84375 0  -0.875 -0.84375 0  -0.84375 -0.84375 0  -0.8125 -0.84375 0  -0.78125 -0.84375 0  -0.75 -0.84375 0  -0.71875 -0.84375 0  -0.6875 -0.84375 0  -0.65625 -0.84375 0  -0.625 -0.84375 0  -0.59375 -0.84375 0  -0.5625 -0.84375 0  -0.53125 -0.84375 0  -0.5 -0.84375 0  -0.46875 -0.84375 0  -0.4375 -0.84375 0  -0.40625 -0.84375 0  -0.375 -0.84375 0  -0.34375 -0.84375 0  -0.3125 -0.84375 0  -0.28125 -0.84375 0  -0.25 -0.84375 0  -0.21875 -0.84375 0  -0.1875 -0.84375 0  -0.15625 -0.84375 0  -0.125 -0.84375 0  -0.09375 -0.84375 0  -0.0625 -0.84375 0  -0.03125 -0.84375 0  0 -0.84375 0  0.03125 -0.84375 0  0.0625 -0.84375 0  0.09375 -0.84375 0  0.125 -0.84375 0  0.15625 -0.84375 0  0.1875 -0.84375 0  0.21875 -0.84375 0  0.25 -0.84375 0  0.28125 -0.84375 0  0.3125 -0.84375 0  0.34375 -0.84375 0  0.375 -0.84375 0  0.40625 -0.84375 0  0.4375 -0.84375 0  0.46875 -0.84375 0  0.5 -0.84375 0  0.53125 -0.84375 0  0.5625 -0.84375 0  0.59375 -0.84375 0  0.625 -0.84375 0  0.65625 -0.84375 0  0.6875 -0.84375 0  0.71875 -0.84375 0  0.75 -0.84375 0  0.78125 -0.84375 0  0.8125 -0.84375 0  0.84375 -0.84375 0  0.875 -0.84375 0  0.90625 -0.84375 0  0.9375 -0.84375 0  0.96875 -0.84375 0  1 -0.84375 0  -1 -0.8125 0  -0.96875 -0.8125 0  -0.9375 -0.8125 0  -0.90625 -0.8125 0  -0.875 -0.8125 0  -0.84375 -0.8125 0  -0.8125 -0.8125 0  -0.78125 -0.8125 0  -0.75 -0.8125 0  -0.71875 -0.8125 0  -0.6875 -0.8125 0  -0.65625 -0.8125 0  -0.625 -0.8125 0  -0.59375 -0.8125 0  -0.5625 -0.8125 0  -0.53125 -0.8125 0  -0.5 -0.8125 0  -0.46875 -0.8125 0  -0.4375 -0.8125 0  -0.40625 -0.8125 0  -0.375 -0.8125 0  -0.34375 -0.8125 0  -0.3125 -0.8125 0  -0.28125 -0.8125 0  -0.25 -0.8125 0  -0.21875 -0.8125 0  -0.1875 -0.8125 0  -0.15625 -0.8125 0  -0.125 -0.8125 0  -0.09375 -0.8125 0  -0.0625 -0.8125 0  -0.03125 -0.8125 0  0 -0.8125 0  0.03125 -0.8125 0  0.0625 -0.8125 0  0.09375 -0.8125 0  0.125 -0.8125 0  0.15625 -0.8125 0  0.1875 -0.8125 0  0.21875 -0.8125 0  0.25 -0.8125 0  0.28125 -0.8125 0  0.3125 -0.8125 0  0.34375 -0.8125 0  0.375 -0.8125 0  0.40625 -0.8125 0  0.4375 -0.8125 0  0.46875 -0.8125 0  0.5 -0.8125 0  0.53125 -0.8125 0  0.5625 -0.8125 0  0.59375 -0.8125 0  0.625 -0.8125 0  0.65625 -0.8125 0  0.6875 -0.8125 0  0.71875 -0.8125 0  0.75 -0.8125 0  0.78125 -0.8125 0  0.8125 -0.8125 0  0.84375 -0.8125 0  0.875 -0.8125 0  0.90625 -0.8125 0  0.9375 -0.8125 0  0.96875 -0.8125 0  1 -0.8125 0  -1 -0.78125 0  -0.96875 -0.78125 0  -0.9375 -0.78125 0  -0.90625 -0.78125 0  -0.875 -0.78125 0  -0.84375 -0.78125 0  -0.8125 -0.78125 0  -0.78125 -0.78125 0  -0.75 -0.78125 0  -0.71875 -0.78125 0  -0.6875 -0.78125 0  -0.65625 -0.78125 0  -0.625 -0.78125 0  -0.59375 -0.78125 0  -0.5625 -0.78125 0  -0.53125 -0.78125 0  -0.5 -0.78125 0  -0.46875 -0.78125 0  -0.4375 -0.78125 0  -0.40625 -0.78125 0  -0.375 -0.78125 0  -0.34375 -0.78125 0  -0.3125 -0.78125 0  -0.28125 -0.78125 0  -0.25 -0.78125 0  -0.21875 -0.78125 0  -0.1875 -0.78125 0  -0.15625 -0.78125 0  -0.125 -0.78125 0  -0.09375 -0.78125 0  -0.0625 -0.78125 0  -0.03125 -0.78125 0  0 -0.78125 0  0.03125 -0.78125 0  0.0625 -0.78125 0  0.09375 -0.78125 0  0.125 -0.78125 0  0.15625 -0.78125 0  0.1875 -0.78125 0  0.21875 -0.78125 0  0.25 -0.78125 0  0.28125 -0.78125 0  0.3125 -0.78125 0  0.34375 -0.78125 0  0.375 -0.78125 0  0.40625 -0.78125 0  0.4375 -0.78125 0  0.46875 -0.78125 0  0.5 -0.78125 0  0.53125 -0.78125 0  0.5625 -0.78125 0  0.59375 -0.78125 0  0.625 -0.78125 0  0.65625 -0.78125 0  0.6875 -0.78125 0  0.71875 -0.78125 0  0.75 -0.78125 0  0.78125 -0.78125 0  0.8125 -0.78125 0  0.84375 -0.78125 0  0.875 -0.78125 0  0.90625 -0.78125 0  0.9375 -0.78125 0  0.96875 -0.78125 0  1 -0.78125 0  -1 -0.75 0  -0.96875 -0.75 0  -0.9375 -0.75 0  -0.90625 -0.75 0  -0.875 -0.75 0  -0.84375 -0.75 0  -0.8125 -0.75 0  -0.78125 -0.75 0  -0.75 -0.75 0  -0.71875 -0.75 0  -0.6875 -0.75 0  -0.65625 -0.75 0  -0.625 -0.75 0  -0.59375 -0.75 0  -0.5625 -0.75 0  -0.53125 -0.75 0  -0.5 -0.75 0  -0.46875 -0.75 0  -0.4375 -0.75 0  -0.40625 -0.75
[...]
<PointData  Scalars="f_15"> 
<DataArray  type="Float64"  Name="f_15"  format="ascii">-4.3754125999823235e-01  -4.3333764368679073e-01  -4.2088833736989917e-01  -4.0067176090766493e-01  -3.7346482599594438e-01  -3.4031307988557030e-01  -3.0249052558785106e-01  -2.6145066265331507e-01  -2.1877062999911615e-01  -1.7609059734491728e-01  -1.3505073441038121e-01  -9.7228180112662044e-02  -6.4076434002287949e-02  -3.6869499090567436e-02  -1.6652922628333015e-02  -4.2036163114416419e-03  0.0000000000000000e+00  -4.2036163114416419e-03  -1.6652922628333042e-02  -3.6869499090567449e-02  -6.4076434002288005e-02  -9.7228180112662099e-02  -1.3505073441038137e-01  -1.7609059734491736e-01  -2.1877062999911617e-01  -2.6145066265331507e-01  -3.0249052558785106e-01  -3.4031307988557041e-01  -3.7346482599594438e-01  -4.0067176090766493e-01  -4.2088833736989928e-01  -4.3333764368679073e-01  -4.3754125999823235e-01  -4.3333764368679073e-01  -4.2088833736989928e-01  -4.0067176090766493e-01  -3.7346482599594438e-01  -3.4031307988557041e-01  -3.0249052558785106e-01  -2.6145066265331507e-01  -2.1877062999911617e-01  -1.7609059734491736e-01  -1.3505073441038137e-01  -9.7228180112662099e-02  -6.4076434002288005e-02  -3.6869499090567449e-02  -1.6652922628333042e-02  -4.2036163114416419e-03  0.0000000000000000e+00  -4.2036163114416419e-03  -1.6652922628333015e-02  -3.6869499090567436e-02  -6.4076434002287949e-02  -9.7228180112662044e-02  -1.3505073441038121e-01  -1.7609059734491728e-01  -2.1877062999911615e-01  -2.6145066265331507e-01  -3.0249052558785106e-01  -3.4031307988557030e-01  -3.7346482599594438e-01  -4.0067176090766493e-01  -4.2088833736989917e-01  -4.3333764368679073e-01  -4.3754125999823235e-01  -4.3333764368679073e-01  -3.5052607752736731e-01  -3.4200604114717370e-01  -3.2011377857967455e-01  -2.8943220965684013e-01  -2.5027755560214499e-01  -2.0415015410780110e-01  -1.5289318739255439e-01  -9.8502303293220475e-02  -4.2997886202000679e-02  1.1663900542145340e-02  6.3656612777454408e-02  1.1133261855487603e-01  1.5326035417484987e-01  1.8825274002069545e-01  2.1538858367895489e-01  2.3402800609594535e-01  2.4382238772715265e-01  2.4471906140135449e-01  2.3696069926059016e-01  2.2107909083562602e-01  1.9788243411151096e-01  1.6843436008528168e-01  1.3402134955893696e-01  9.6103338275549899e-02  5.6241007889854068e-02  1.5994872187256492e-02  -2.3201496049263158e-02  -6.0178069341605231e-02  -9.4143429190989114e-02  -1.2474069811834693e-01  -1.5201926139331717e-01  -1.7632700387534408e-01  -1.9815896615185052e-01  -2.1801225726406134e-01  -2.3628631160563307e-01  -2.5324181426149195e-01  -2.6900693018311506e-01  -2.8360767236152240e-01  -2.9700100059129286e-01  -3.0909907462237779e-01  -3.1978323179202534e-01  -3.2891275218702237e-01  -3.3633480800990678e-01  -3.4190004342497310e-01  -3.4548451101808281e-01  -3.4701538074076804e-01  -3.4649541041353110e-01  -3.4402049977649379e-01  -3.3978517624166560e-01  -3.3407305876994631e-01  -3.2723208968417128e-01  -3.1963975086897650e-01  -3.1166673964880437e-01  -3.0366440418927815e-01  -2.9598534985555236e-01  -2.8911687543243908e-01  -2.8377208782721147e-01  -2.8128560110886930e-01  -2.8291893284508429e-01  -2.9139492391509836e-01  -3.0430063427267329e-01  -3.3179400525618530e-01  -3.3620794101325879e-01  -4.3333764368679073e-01  -4.2088833736989917e-01  -3.2841203723019458e-01  -3.4862632545458672e-01  -3.3436783178393098e-01  -3.1206954037666024e-01  -2.8099643671853020e-01  -2.4301971971262262e-01  -1.9999771963645990e-01  -1.5389587418746081e-01  -1.0667522827096364e-01  -6.0211758297585294e-02  -1.6236037605985860e-02  2.3711309747028619e-02  5.8313845684089288e-02  8.6506712144140782e-02  1.0749859675158728e-01  1.2078824687404568e-01  1.2617490655658778e-01  1.2376191318214994e-01  1.1395292319369377e-01  9.7440254742713922e-02  7.5184497716095575e-02  4.8383204986294184e-02  1.8424296632944658e-02  -1.3182588241317876e-02  -4.4903591468568378e-02  -7.5308026894401137e-02  -1.0321302312921070e-01  -1.2781508058635166e-01  -1.4876770596264022e-01  -1.6617285799344503e-01  -1.8048272706306162e-01  -1.9234238836120460e-01  -2.0242311066168969e-01  -2.1129111480119650e-01  -2.1933513656302120e-01  -2.2675253818038144e-01  -2.3357843569325329e-01  -2.3973718843129729e-01  -2.4509838993226721e-01  -2.4952569535223348e-01  -2.5291332999522359e-01  -2.5520940234938333e-01  -2.5642733678523966e-01  -2.5664716220603850e-01  -2.5600857028701901e-01  -2.5469775991175370e-01  -2.5293066431188643e-01  -2.5093542676250513e-01  -2.4893704410286088e-01  -2.4714653778486415e-01  -2.4575603851482930e-01  -2.4494205303648151e-01  -2.4487674346522506e-01  -2.4576061766781518e-01  -2.4785950721568892e-01  -2.5162140061605442e-01  -2.5765638407157310e-01  -2.6709262936866529e-01  -2.8054086708998199e-01  -3.0003174690909967e-01  -3.2071831947147866e-01  -3.5147538764685204e-01  -3.4548386413920401e-01  -4.2088833736989917e-01  -4.0067176090766493e-01  -3.0473171956859690e-01  -3.2264859235754750e-01  -3.0749353569733939e-01  -2.8702057467399977e-01  -2.5753140864412521e-01  -2.2100414472877022e-01  -1.7905298842385881e-01  -1.3352798425737267e-01  -8.6349834598150627e-02  -3.9414268108067849e-02  5.4909713687677150e-03  4.6750270076231233e-02  8.2967893808181523e-02  1.1300282913610363e-01  1.3599393250093667e-01  1.5137761553701853e-01  1.5889927064851278e-01  1.5861881500867570e-01  1.5090992425597297e-01  1.3645143317990424e-01  1.1620767300338823e-01  9.1392292017517210e-02  6.3408291432769853e-02  3.3757739921133734e-02  3.9206132644070257e-03  -2.4785590527802593e-02  -5.1339113346257320e-02  -7.5105390748268525e-02  -9.5858642481090273e-02  -1.1372744397290373e-01  -1.2908423994037835e-01  -1.4241458584978869e-01  -1.5420072617488526e-01  -1.6484081217782179e-01  -1.7460930530933688e-01  -1.8365269568731274e-01  -1.9200922877563389e-01  -1.9964067645465144e-01  -2.0646642533409604e-01  -2.1239364198298294e-01  -2.1734062584609898e-01  -2.2125294776361831e-01  -2.2411330437331575e-01  -2.2594650118302270e-01  -2.2682090997401086e-01  -2.2684751217456034e-01  -2.2617731700848231e-01  -2.2499773535013104e-01  -2.2352826648909976e-01  -2.2201611028251175e-01  -2.2073222690044081e-01  -2.1997097597995124e-01  -2.2005305827297822e-01  -2.2134828741355328e-01  -2.2428975046264563e-01  -2.2947592700297414e-01  -2.3755794350082535e-01  -2.4962053943428461e-01  -2.6568890102107956e-01  -2.8738813490350079e-01  -3.0730040158211774e-01  -3.3611090991143622e-01  -3.1861121757656863e-01  -4.0067176090766493e-01  -3.7346482599594438e-01  -2.8816876110376444e-01  -3.0061356466771821e-01  -2.8641461753950764e-01  -2.6718601412514487e-01  -2.4008008776561340e-01  -2.0686202192204925e-01  -1.6878072067402941e-01  -1.2741768877614745e-01  -8.4460034390317684e-02  -4.1616485352729361e-02  -5.2802411055615504e-04  3.7306306470504730e-02  7.0587540648283459e-02  9.8259850521607503e-02  1.1954092049622055e-01  1.3394199420883218e-01  1.4127906851006686e-01  1.4167556713471197e-01  1.3555544435349645e-01  1.2362425865716972e-01  1.0683433469907952e-01  8.6329579845793286e-02  6.3366923111578627e-02  3.9216152984684186e-02  1.5047972076255356e-02  -8.1712026352876704e-03  -2.9754968559416339e-02  -4.9325138813074473e-02  -6.6787639073149357e-02  -8.2267046532076088e-02  -9.6020948803496528e-02  -1.0835613280476082e-01  -1.1956204851233859e-01  -1.2986819434302074e-01  -1.3942491308085658e-01  -1.4830305639001892e-01  -1.5650643203549211e-01  -1.6399114652797331e-01  -1.7068697211698788e-01  -1.7651737532217293e-01  -1.8141627843298780e-01  -1.8534086483361537e-01  -1.8828047810574969e-01  -1.9026210433554280e-01  -1.9135301266130070e-01  -1.9166119300023537e-01  -1.9133418054148221e-01  -1.9055691844213543e-01  -1.8954925833568248e-01  -1.8856403493061408e-01  -1.8788626901118749e-01  -1.8783674567184364e-01  -1.8877755524081463e-01  -1.9113795964292593e-01  -1.9541745079078296e-01  -2.0228936131321604e-01  -2.1239206818486969e-01  -2.2676937443986184e-01  -2.4484164834286687e-01  -2.6807642168291562e-01  -2.8662725575921982e-01  -3.1447234931387058e-01  -2.8858473223271763e-01  -3.7346482599594438e-01  -3.4031307988557030e-01  -2.7890373075273767e-01  -2.8176544345796606e-01  -2.6536849541191676e-01  -2.4467467707436300e-01  -2.1776043360399802e-01  -1.8574572569015993e-01  -1.4959901206611165e-01  -1.1060958522364515e-01  -7.0196305404520959e-02  -2.9845403931174914e-02  8.9748521984534795e-03  4.4891007468244010e-02  7.6690603343641625e-02  1.0337503285603442e-01  1.2419879788195755e-01  1.3869590391515063e-01  1.4669416983058003e-01  1.4831741451771385e-01  1.4397439855523564e-01  1.3433229546704170e-01  1.2027218428234220e-01  1.0282516881716504e-01  8.3091053202435289e-02  6.2146650353641565e-02  4.0956275243527331e-02  2.0299812483817150e-02  7.3155042143896920e-04  -1.7424413022237059e-02  -3.4045977835966426e-02  -4.9163324074275871e-02  -6.2901545175455278e-02  -7.5427353601372468e-02  -8.6907083552988984e-02  -9.7478650771700953e-02  -1.0723699110734551e-01  -1.1623069801522236e-01  -1.2446694479572570e-01  -1.3192163136225407e-01  -1.3855206938795067e-01  -1.4431001088364148e-01  -1.4915358385697747e-01  -1.5305729411599517e-01  -1.5601985641807273e-01  -1.5806989330430518e-01  -1.5926981111760694e-01  -1.5971817126386129e-01  -1.5955097249574413e-01  -1.5894221815859608e-01  -1.5810420540002096e-01  -1.5728829374774367e-01  -1.5678652839534293e-01  -1.5693760725808797e-01  -1.5813318155567643e-01  -1.6084644832916914e-01  -1.6562361108983409e-01  -1.7319564990332370e-01  -1.8416118495250799e-01  -1.9952767340997085e-01  -2.1806754938349296e-01  -2.4134377115901895e-01  -2.5707629456425157e-01  -2.8377237136282607e-01  -2.4878173240983262e-01  -3.4031307988557030e-01  -3.0249052558785106e-01  -2.7604354901549405e-01  -2.6784396045176390e-01  -2.4884608122152635e-01  -2.2621511302639302e-01  -1.9883033402034914e-01  -1.6747388920971654e-01  -1.3293591654894557e-01  -9.6246513945941053e-02  -5.8569529394058011e-02  -2.1146537692103163e-02  1.4776699516516585e-02  4.8019525066916868e-02  7.7529969270250382e-02  1.0243827202202374e-01  1.2209803529722515e-01  1.3611392246985099e-01  1.4435534149503262e-01  1.4695557347219543e-01  1.4429553542822499e-01  1.3697146789591133e-01  1.2574667938499767e-01  1.1148952887029902e-01  9.5102765547743912e-02  7.7452380457012637e-02  5.9305741804174972e-02  4.1287823202704521e-02  2.3860596055452182e-02  7.3254318417078790e-03  -8.1562894601768399e-03  -2.2531700184936249e-02  -3.5821435016714386e-02  -4.8086820703652534e-02  -5.9402766547473215e-02  -6.9837991206601460e-02  -7.9442798962988032e-02  -8.8243779970071837e-02  -9.6244186062605860e-02  -1.0342849431564430e-01  -1.0976954247844298e-01  -1.1523684648360506e-01  -1.1980494663889538e-01  -1.2346107507571942e-01  -1.2621171224836647e-01  -1.2808794756693703e-01  -1.2914966329261762e-01  -1.2948875283826600e-01  -1.2923156482427478e-01  -1.2854093514386714e-01  -1.2761810715068872e-01  -1.2670539772695802e-01  -1.2608976937529878e-01  -1.2611128623818640e-01  -1.2717055176898071e-01  -1.2976145770428160e-01  -1.3445087331287511e-01  -1.4200441431254959e-01  -1.5295037995669641e-01  -1.6827408803208183e-01  -1.8609284479813529e-01  -2.0837389419908264e-01  -2.2040587418396876e-01  -2.4619969139597869e-01  -2.0221789191973397e-01  -3.0249052558785106e-01  -2.6145066265331507e-01  -2.7790749335482634e-01  -2.5829845228393034e-01  -2.3672456150408858e-01  -2.1188478335404073e-01  -1.8359325483667238e-01  -1.5236613787046896e-01  -1.1883042092198577e-01  -8.3814195380704698e-02  -4.8270172670459736e-02  -1.3223288909342107e-02  2.0288599631206456e-02  5.1273485012632833e-02  7.8841193130927439e-02  1.0225232608418387e-01  1.2095714679009889e-01  1.3462211816226022e-01  1.4314257967575933e-01  1.4664064068206434e-01  1.4544797422143563e-01  1.4007408783823924e-01  1.3116198752322741e-01  1.1943493132913308e-01  1.0563971844330504e-01  9.0493072971667102e-02  7.4637453038646107e-02  5.8610914195398489e-02  4.2832866335746372e-02  2.7604648769471014e-02  1.3121652133026776e-02  -5.0727138455532389e-04  -1.3237278049618243e-02  -2.5065275643995303e-02  -3.6010334514690483e-02  -4.6098202374393528e-02  -5.5350548916717784e-02  -6.3778919725235278e-02  -7.1382885451122688e-02  -7.8151546242271941e-02  -8.4067404424815653e-02  -8.9111630801162231e-02  -9.3269898921988420e-02  -9.6538172896586380e-02  -9.8928063381885409e-02  -1.0047156429905606e-01  -1.0122513910966517e-01  -1.0127322749429229e-01  -1.0073133683946030e-01  -9.9748976759906668e-02  -9.8512755251049647e-02  -9.7250469030065900e-02  -9.6236271608957230e-02  -9.5801271840225605e-02  -9.6341880505084757e-02  -9.8356926927921043e-02  -1.0241478007585021e-01  -1.0929827693214651e-01  -1.1944338874285343e-01  -1.3384083824426518e-01  -1.4997182179051724e-01  -1.7050730076950474e-01  -1.7826750932041305e-01  -2.0353269196856902e-01  -1.5051760383506638e-01  -2.6145066265331507e-01  -2.1877062999911615e-01  -2.8281743223045963e-01  -2.5210058535614305e-01  -2.2845807201246460e-01  -2.0165584443189685e-01  -1.7252632344569444e-01  -1.4133977527110053e-01  -1.0861368547413308e-01  -7.5025110940536988e-02  -4.1356863907531245e-02  -8.4520446122903822e-03  2.2835234092588978e-02  5.1689026667692935e-02  7.7378222953240497e-02  9.9297650472933194e-02  1.1700082917272038e-01  1.3022203249493122e-01  1.3888605652997849e-01  1.4310488840074637e-01  1.4316147105276983e-01  1.3948182327356523e-01  1.3259805274292791e-01  1.2310589942387641e-01  1.1162129012573950e-01  9.8740454952910436e-02  8.5007504625781855e-02  7.0891946019238997e-02  5.6776927947890667e-02  4.2957406510297939e-02  2.9646300484052930e-02  1.6986159918021354e-02  5.0638159206468671e-03  -6.0742133045363226e-03  -1.6407344781907311e-02  -2.5928809478111610e-02  -3.4636527609176772e-02  -4.2527201367162822e-02  -4.9593490211012593e-02  -5.5823802206342935e-02  -6.1204113071331612e-02  -6.5721140523920848e-02  -6.9366303282752034e-02  -7.2139966301468780e-02  -7.4055667907407585e-02  -7.5144111805551861e-02  -7.5456879436717236e-02  -7.5069873245839580e-02  -7.4086628152257708e-02  -7.2641719488199724e-02  -7.0904584411873209e-02  -6.9084618417950341e-02  -6.7437536654397001e-02  -6.6277750764036483e-02  -6.5987298195685051e-02  -6.7057245312393099e-02  -7.0042005248542052e-02  -7.5728121126442699e-02  -8.4447364444372383e-02  -9.7233417541081751e-02  -1.1097470352921289e-01  -1.2930674419785629e-01  -1.3253598073845624e-01  -1.5772952290849571e-01  -9.5740062435823337e-02  -2.1877062999911615e-01  -1.7609059734491728e-01  -2.8953142925173270e-01  -2.4829800050815176e-01  -2.2321177486748234e-01  -1.9477772631738266e-01  -1.6497218375460393e-01  -1.3383511967670630e-01  -1.0180589358051950e-01  -6.9437861449904506e-02  -3.7375295254581067e-02  -6.3106525149370834e-03  2.3057223739925206e-02  5.0063741558247450e-02  7.4116532692675804e-02  9.4728596147672359e-02  1.1154443250561526e-01  1.2435731194652598e-01  1.3311637236990370e-01  1.3792305006372471e-01  1.3901721902424100e-01  1.3675442846522809e-01  1.3157650246090674e-01  1.2397850895518044e-01  1.1447539571934985e-01  1.0357148270179788e-01  9.1735355323273718e-02  7.9381782131562245e-02  6.6861196114523597e-02  5.4456321568916471e-02  4.2384798985061076e-02  3.0806241888203405e-02  1.9832034541846521e-02  9.5362598644788844e-03  -3.3592634881438383e-05  -8.8471770158071953e-03  -1.6883748333414807e-02  -2.4126853290506491e-02  -3.0561246476442410e-02  -3.6171823351956102e-02  -4.0944187234539645e-02  -4.4866440984447378e-02  -4.7931772863263410e-02  -5.0141505383225350e-02  -5.1508323753584197e-02  -5.2059543161124100e-02  -5.1840322629596945e-02  -5.0916864491681216e-02  -4.9379687605078187e-02  -4.7347234302577278e-02  -4.4970097312122724e-02  -4.2436792177950648e-02  -3.9980950451001078e-02  -3.7895048697653005e-02  -3.6539624601820531e-02  -3.6388546754443120e-02  -3.7971287501651567e-02  -4.2069005434535893e-02  -4.8908782901432406e-02  -5.9608444217930379e-02  -7.0526029407276744e-02  -8.6455497608385098e-02  -8.5153439631953667e-02  -1.1074514283232374e-01  -3.9903150339567116e-02  -1.7609059734491728e-01  -1.3505073441038121e-01  -2.9727827347205288e-01  -2.4619993243284882e-01  -2.2025392449391976e-01  -1.9050803558232196e-01  -1.6020901522484712e-01  -1.2917110921469066e-01  -9.7781671932053227e-02  -6.6493422155966292e-02  -3.5837068890510977e-02  -6.3795179847341392e-03  2.1310821103144244e-02  4.6697536891759990e-02  6.9306803231715258e-02  8.8753531364741595e-02  1.0476154304337855e-01  1.1717645223297832e-01  1.2597041311158533e-01  1.3123849844776334e-01  1.3318720747099108e-01  1.3211631108381575e-01  1.2839588311213815e-01  1.2244077395929844e-01  1.1468493586766648e-01  1.0555782118120408e-01  9.5464640668372541e-02  8.4771623374484698e-02  7.3796734287971552e-02  6.2805656154019895e-02  5.2012342162497775e-02  4.1583116163033146e-02  3.1643150688896109e-02  2.2284167137004283e-02  1.3572328807155309e-02  5.5555139168469922e-03  -1.7306032949992237e-03  -8.2579741168723863e-03  -1.4003195786317587e-02  -1.8946037560024984e-02  -2.3069270372978568e-02  -2.6359522003655621e-02  -2.8808887725940570e-02  -3.0417035367953486e-02  -3.1193621317325407e-02  -3.1160875922599859e-02  -3.0356315559134320e-02  -2.8835594935470176e-02  -2.6675617808234013e-02  -2.3978144141133004e-02  -2.0874214661977669e-02  -1.7530308063838405e-02  -1.4156090995463813e-02  -1.1019054470212515e-02  -8.4538592805211213e-03  -6.9107968239084001e-03  -6.8879823192026391e-03  -9.1559564119330916e-03  -1.3847184474408133e-02  -2.2200113013703969e-02  -3.0117968024815041e-02  -4.3659936439703624e-02  -3.8032902012586245e-02  -6.4453764284973569e-02  1.5040142142609281e-02  -1.3505073441038121e-01  -9.7228180112662044e-02  -3.0559414255972539e-01  -2.4535000168488705e-01  -2.1900949577328760e-01  -1.8820384281723732e-01  -1.5755017561427889e-01  -1.2663957414864815e-01  -9.5830257221943993e-02  -6.5491437538607575e-02  -3.6058989742595214e-02  -7.9940594909393980e-03  1.8244866847542056e-02  4.2229360664149250e-02  6.3585397896845017e-02  8.2013726235462714e-02  9.7305180806176922e-02  1.0935009222783708e-01  1.1814128397875134e-01  1.2377062429953992e-01  1.2641962265195328e-01  1.2634506328488038e-01  1.2386109206534025e-01  1.1931943153574809e-01  1.1308946663374839e-01  1.0553980644703161e-01  9.7022609244657013e-02  8.7861532353506286e-02  7.8343685688534281e-02  6.8715529225093996e-02  5.9182277101533898e-02  4.9910126136522237e-02  4.1030484535790439e-02  3.2645365220073504e-02  2.4833168951223023e-02  1.7654226140777107e-02  1.1155625950175850e-02  5.3750476707185588e-03  3.4346517218084949e-04  -3.9132616293667639e-03  -7.3738032474522089e-03  -1.0021619749246081e-02  -1.1845879704143353e-02  -1.2842867359823698e-02  -1.3017737300298570e-02  -1.2386527075808059e-02  -1.0978393498247410e-02  -8.8381106452715408e-03  -6.0289469178109890e-03  -2.6361767846841372e-03  1.2284494946353697e-03  5.4203544447764774e-03  9.7540526707366512e-03  1.3987979955756622e-02  1.7815033527884112e-02  2.0811785808900557e-02  2.2513342629938902e-02  2.2162018388119008e-02  1.9701557766467800e-02  1.3749375315189556e-02  8.7734678313511946e-03  -2.5605944430148763e-03  7.0256298966008398e-03  -2.0586318339194339e-02  6.7271062723936778e-02  -9.7228180112662044e-02  -6.4076434002287949e-02  -3.1413697377100058e-01  -2.4544280548787498e-01  -2.1902797913515520e-01  -1.8734138411356460e-01  -1.5642496066278661e-01  -1.2564665204504658e-01  -9.5353315738073069e-02  -6.5843926348179801e-02  -3.7474666694270665e-02  -1.0616896597795338e-02  1.4364170833678703e-02  3.7131536656687739e-02  5.7395507487517504e-02  7.4929374263425941e-02  8.9580885063481594e-02  1.0127897192884651e-01  1.1003545934792065e-01  1.1594183960975223e-01  1.1916155645060242e-01  1.1991860398506468e-01  1.1848350660076688e-01  1.1515792605236833e-01  1.1025916127697867e-01  1.0410570730518547e-01  9.7004816904827915e-02  8.