<?xml version="1.0"?>
<VTKFile type="UnstructuredGrid"  version="0.1"  >
<UnstructuredGrid>
<Piece  NumberOfPoints="4225" NumberOfCells="8192">
<Points>
<DataArray  type="Float64"  NumberOfComponents="3"  format="ascii">-1 -1 0  -0.96875 -1 0  -0.9375 -1 0  -0.90625 -1 0  -0.875 -1 0  -0.84375 -1 0  -0.8125 -1 0  -0.78125 -1 0  -0.75 -1 0  -0.71875 -1 0  -0.6875 -1 0  -0.65625 -1 0  -0.625 -1 0  -0.59375 -1 0  -0.5625 -1 0  -0.53125 -1 0  -0.5 -1 0  -0.46875 -1 0  -0.4375 -1 0  -0.40625 -1 0  -0.375 -1 0  -0.34375 -1 0  -0.3125 -1 0  -0.28125 -1 0  -0.25 -1 0  -0.21875 -1 0  -0.1875 -1 0  -0.15625 -1 0  -0.125 -1 0  -0.09375 -1 0  -0.0625 -1 0  -0.03125 -1 0  0 -1 0  0.03125 -1 0  0.0625 -1 0  0.09375 -1 0  0.125 -1 0  0.15625 -1 0  0.1875 -1 0  0.21875 -1 0  0.25 -1 0  0.28125 -1 0  0.3125 -1 0  0.34375 -1 0  0.375 -1 0  0.40625 -1 0  0.4375 -1 0  0.46875 -1 0  0.5 -1 0  0.53125 -1 0  0.5625 -1 0  0.59375 -1 0  0.625 -1 0  0.65625 -1 0  0.6875 -1 0  0.71875 -1 0  0.75 -1 0  0.78125 -1 0  0.8125 -1 0  0.84375 -1 0  0.875 -1 0  0.90625 -1 0  0.9375 -1 0  0.96875 -1 0  1 -1 0  -1 -0.96875 0  -0.96875 -0.96875 0  -0.9375 -0.96875 0  -0.90625 -0.96875 0  -0.875 -0.96875 0  -0.84375 -0.96875 0  -0.8125 -0.96875 0  -0.78125 -0.96875 0  -0.75 -0.96875 0  -0.71875 -0.96875 0  -0.6875 -0.96875 0  -0.65625 -0.96875 0  -0.625 -0.96875 0  -0.59375 -0.96875 0  -0.5625 -0.96875 0  -0.53125 -0.96875 0  -0.5 -0.96875 0  -0.46875 -0.96875 0  -0.4375 -0.96875 0  -0.40625 -0.96875 0  -0.375 -0.96875 0  -0.34375 -0.96875 0  -0.3125 -0.96875 0  -0.28125 -0.96875 0  -0.25 -0.96875 0  -0.21875 -0.96875 0  -0.1875 -0.96875 0  -0.15625 -0.96875 0  -0.125 -0.96875 0  -0.09375 -0.96875 0  -0.0625 -0.96875 0  -0.03125 -0.96875 0  0 -0.96875 0  0.03125 -0.96875 0  0.0625 -0.96875 0  0.09375 -0.96875 0  0.125 -0.96875 0  0.15625 -0.96875 0  0.1875 -0.96875 0  0.21875 -0.96875 0  0.25 -0.96875 0  0.28125 -0.96875 0  0.3125 -0.96875 0  0.34375 -0.96875 0  0.375 -0.96875 0  0.40625 -0.96875 0  0.4375 -0.96875 0  0.46875 -0.96875 0  0.5 -0.96875 0  0.53125 -0.96875 0  0.5625 -0.96875 0  0.59375 -0.96875 0  0.625 -0.96875 0  0.65625 -0.96875 0  0.6875 -0.96875 0  0.71875 -0.96875 0  0.75 -0.96875 0  0.78125 -0.96875 0  0.8125 -0.96875 0  0.84375 -0.96875 0  0.875 -0.96875 0  0.90625 -0.96875 0  0.9375 -0.96875 0  0.96875 -0.96875 0  1 -0.96875 0  -1 -0.9375 0  -0.96875 -0.9375 0  -0.9375 -0.9375 0  -0.90625 -0.9375 0  -0.875 -0.9375 0  -0.84375 -0.9375 0  -0.8125 -0.9375 0  -0.78125 -0.9375 0  -0.75 -0.9375 0  -0.71875 -0.9375 0  -0.6875 -0.9375 0  -0.65625 -0.9375 0  -0.625 -0.9375 0  -0.59375 -0.9375 0  -0.5625 -0.9375 0  -0.53125 -0.9375 0  -0.5 -0.9375 0  -0.46875 -0.9375 0  -0.4375 -0.9375 0  -0.40625 -0.9375 0  -0.375 -0.9375 0  -0.34375 -0.9375 0  -0.3125 -0.9375 0  -0.28125 -0.9375 0  -0.25 -0.9375 0  -0.21875 -0.9375 0  -0.1875 -0.9375 0  -0.15625 -0.9375 0  -0.125 -0.9375 0  -0.09375 -0.9375 0  -0.0625 -0.9375 0  -0.03125 -0.9375 0  0 -0.9375 0  0.03125 -0.9375 0  0.0625 -0.9375 0  0.09375 -0.9375 0  0.125 -0.9375 0  0.15625 -0.9375 0  0.1875 -0.9375 0  0.21875 -0.9375 0  0.25 -0.9375 0  0.28125 -0.9375 0  0.3125 -0.9375 0  0.34375 -0.9375 0  0.375 -0.9375 0  0.40625 -0.9375 0  0.4375 -0.9375 0  0.46875 -0.9375 0  0.5 -0.9375 0  0.53125 -0.9375 0  0.5625 -0.9375 0  0.59375 -0.9375 0  0.625 -0.9375 0  0.65625 -0.9375 0  0.6875 -0.9375 0  0.71875 -0.9375 0  0.75 -0.9375 0  0.78125 -0.9375 0  0.8125 -0.9375 0  0.84375 -0.9375 0  0.875 -0.9375 0  0.90625 -0.9375 0  0.9375 -0.9375 0  0.96875 -0.9375 0  1 -0.9375 0  -1 -0.90625 0  -0.96875 -0.90625 0  -0.9375 -0.90625 0  -0.90625 -0.90625 0  -0.875 -0.90625 0  -0.84375 -0.90625 0  -0.8125 -0.90625 0  -0.78125 -0.90625 0  -0.75 -0.90625 0  -0.71875 -0.90625 0  -0.6875 -0.90625 0  -0.65625 -0.90625 0  -0.625 -0.90625 0  -0.59375 -0.90625 0  -0.5625 -0.90625 0  -0.53125 -0.90625 0  -0.5 -0.90625 0  -0.46875 -0.90625 0  -0.4375 -0.90625 0  -0.40625 -0.90625 0  -0.375 -0.90625 0  -0.34375 -0.90625 0  -0.3125 -0.90625 0  -0.28125 -0.90625 0  -0.25 -0.90625 0  -0.21875 -0.90625 0  -0.1875 -0.90625 0  -0.15625 -0.90625 0  -0.125 -0.90625 0  -0.09375 -0.90625 0  -0.0625 -0.90625 0  -0.03125 -0.90625 0  0 -0.90625 0  0.03125 -0.90625 0  0.0625 -0.90625 0  0.09375 -0.90625 0  0.125 -0.90625 0  0.15625 -0.90625 0  0.1875 -0.90625 0  0.21875 -0.90625 0  0.25 -0.90625 0  0.28125 -0.90625 0  0.3125 -0.90625 0  0.34375 -0.90625 0  0.375 -0.90625 0  0.40625 -0.90625 0  0.4375 -0.90625 0  0.46875 -0.90625 0  0.5 -0.90625 0  0.53125 -0.90625 0  0.5625 -0.90625 0  0.59375 -0.90625 0  0.625 -0.90625 0  0.65625 -0.90625 0  0.6875 -0.90625 0  0.71875 -0.90625 0  0.75 -0.90625 0  0.78125 -0.90625 0  0.8125 -0.90625 0  0.84375 -0.90625 0  0.875 -0.90625 0  0.90625 -0.90625 0  0.9375 -0.90625 0  0.96875 -0.90625 0  1 -0.90625 0  -1 -0.875 0  -0.96875 -0.875 0  -0.9375 -0.875 0  -0.90625 -0.875 0  -0.875 -0.875 0  -0.84375 -0.875 0  -0.8125 -0.875 0  -0.78125 -0.875 0  -0.75 -0.875 0  -0.71875 -0.875 0  -0.6875 -0.875 0  -0.65625 -0.875 0  -0.625 -0.875 0  -0.59375 -0.875 0  -0.5625 -0.875 0  -0.53125 -0.875 0  -0.5 -0.875 0  -0.46875 -0.875 0  -0.4375 -0.875 0  -0.40625 -0.875 0  -0.375 -0.875 0  -0.34375 -0.875 0  -0.3125 -0.875 0  -0.28125 -0.875 0  -0.25 -0.875 0  -0.21875 -0.875 0  -0.1875 -0.875 0  -0.15625 -0.875 0  -0.125 -0.875 0  -0.09375 -0.875 0  -0.0625 -0.875 0  -0.03125 -0.875 0  0 -0.875 0  0.03125 -0.875 0  0.0625 -0.875 0  0.09375 -0.875 0  0.125 -0.875 0  0.15625 -0.875 0  0.1875 -0.875 0  0.21875 -0.875 0  0.25 -0.875 0  0.28125 -0.875 0  0.3125 -0.875 0  0.34375 -0.875 0  0.375 -0.875 0  0.40625 -0.875 0  0.4375 -0.875 0  0.46875 -0.875 0  0.5 -0.875 0  0.53125 -0.875 0  0.5625 -0.875 0  0.59375 -0.875 0  0.625 -0.875 0  0.65625 -0.875 0  0.6875 -0.875 0  0.71875 -0.875 0  0.75 -0.875 0  0.78125 -0.875 0  0.8125 -0.875 0  0.84375 -0.875 0  0.875 -0.875 0  0.90625 -0.875 0  0.9375 -0.875 0  0.96875 -0.875 0  1 -0.875 0  -1 -0.84375 0  -0.96875 -0.84375 0  -0.9375 -0.84375 0  -0.90625 -0.84375 0  -0.875 -0.84375 0  -0.84375 -0.84375 0  -0.8125 -0.84375 0  -0.78125 -0.84375 0  -0.75 -0.84375 0  -0.71875 -0.84375 0  -0.6875 -0.84375 0  -0.65625 -0.84375 0  -0.625 -0.84375 0  -0.59375 -0.84375 0  -0.5625 -0.84375 0  -0.53125 -0.84375 0  -0.5 -0.84375 0  -0.46875 -0.84375 0  -0.4375 -0.84375 0  -0.40625 -0.84375 0  -0.375 -0.84375 0  -0.34375 -0.84375 0  -0.3125 -0.84375 0  -0.28125 -0.84375 0  -0.25 -0.84375 0  -0.21875 -0.84375 0  -0.1875 -0.84375 0  -0.15625 -0.84375 0  -0.125 -0.84375 0  -0.09375 -0.84375 0  -0.0625 -0.84375 0  -0.03125 -0.84375 0  0 -0.84375 0  0.03125 -0.84375 0  0.0625 -0.84375 0  0.09375 -0.84375 0  0.125 -0.84375 0  0.15625 -0.84375 0  0.1875 -0.84375 0  0.21875 -0.84375 0  0.25 -0.84375 0  0.28125 -0.84375 0  0.3125 -0.84375 0  0.34375 -0.84375 0  0.375 -0.84375 0  0.40625 -0.84375 0  0.4375 -0.84375 0  0.46875 -0.84375 0  0.5 -0.84375 0  0.53125 -0.84375 0  0.5625 -0.84375 0  0.59375 -0.84375 0  0.625 -0.84375 0  0.65625 -0.84375 0  0.6875 -0.84375 0  0.71875 -0.84375 0  0.75 -0.84375 0  0.78125 -0.84375 0  0.8125 -0.84375 0  0.84375 -0.84375 0  0.875 -0.84375 0  0.90625 -0.84375 0  0.9375 -0.84375 0  0.96875 -0.84375 0  1 -0.84375 0  -1 -0.8125 0  -0.96875 -0.8125 0  -0.9375 -0.8125 0  -0.90625 -0.8125 0  -0.875 -0.8125 0  -0.84375 -0.8125 0  -0.8125 -0.8125 0  -0.78125 -0.8125 0  -0.75 -0.8125 0  -0.71875 -0.8125 0  -0.6875 -0.8125 0  -0.65625 -0.8125 0  -0.625 -0.8125 0  -0.59375 -0.8125 0  -0.5625 -0.8125 0  -0.53125 -0.8125 0  -0.5 -0.8125 0  -0.46875 -0.8125 0  -0.4375 -0.8125 0  -0.40625 -0.8125 0  -0.375 -0.8125 0  -0.34375 -0.8125 0  -0.3125 -0.8125 0  -0.28125 -0.8125 0  -0.25 -0.8125 0  -0.21875 -0.8125 0  -0.1875 -0.8125 0  -0.15625 -0.8125 0  -0.125 -0.8125 0  -0.09375 -0.8125 0  -0.0625 -0.8125 0  -0.03125 -0.8125 0  0 -0.8125 0  0.03125 -0.8125 0  0.0625 -0.8125 0  0.09375 -0.8125 0  0.125 -0.8125 0  0.15625 -0.8125 0  0.1875 -0.8125 0  0.21875 -0.8125 0  0.25 -0.8125 0  0.28125 -0.8125 0  0.3125 -0.8125 0  0.34375 -0.8125 0  0.375 -0.8125 0  0.40625 -0.8125 0  0.4375 -0.8125 0  0.46875 -0.8125 0  0.5 -0.8125 0  0.53125 -0.8125 0  0.5625 -0.8125 0  0.59375 -0.8125 0  0.625 -0.8125 0  0.65625 -0.8125 0  0.6875 -0.8125 0  0.71875 -0.8125 0  0.75 -0.8125 0  0.78125 -0.8125 0  0.8125 -0.8125 0  0.84375 -0.8125 0  0.875 -0.8125 0  0.90625 -0.8125 0  0.9375 -0.8125 0  0.96875 -0.8125 0  1 -0.8125 0  -1 -0.78125 0  -0.96875 -0.78125 0  -0.9375 -0.78125 0  -0.90625 -0.78125 0  -0.875 -0.78125 0  -0.84375 -0.78125 0  -0.8125 -0.78125 0  -0.78125 -0.78125 0  -0.75 -0.78125 0  -0.71875 -0.78125 0  -0.6875 -0.78125 0  -0.65625 -0.78125 0  -0.625 -0.78125 0  -0.59375 -0.78125 0  -0.5625 -0.78125 0  -0.53125 -0.78125 0  -0.5 -0.78125 0  -0.46875 -0.78125 0  -0.4375 -0.78125 0  -0.40625 -0.78125 0  -0.375 -0.78125 0  -0.34375 -0.78125 0  -0.3125 -0.78125 0  -0.28125 -0.78125 0  -0.25 -0.78125 0  -0.21875 -0.78125 0  -0.1875 -0.78125 0  -0.15625 -0.78125 0  -0.125 -0.78125 0  -0.09375 -0.78125 0  -0.0625 -0.78125 0  -0.03125 -0.78125 0  0 -0.78125 0  0.03125 -0.78125 0  0.0625 -0.78125 0  0.09375 -0.78125 0  0.125 -0.78125 0  0.15625 -0.78125 0  0.1875 -0.78125 0  0.21875 -0.78125 0  0.25 -0.78125 0  0.28125 -0.78125 0  0.3125 -0.78125 0  0.34375 -0.78125 0  0.375 -0.78125 0  0.40625 -0.78125 0  0.4375 -0.78125 0  0.46875 -0.78125 0  0.5 -0.78125 0  0.53125 -0.78125 0  0.5625 -0.78125 0  0.59375 -0.78125 0  0.625 -0.78125 0  0.65625 -0.78125 0  0.6875 -0.78125 0  0.71875 -0.78125 0  0.75 -0.78125 0  0.78125 -0.78125 0  0.8125 -0.78125 0  0.84375 -0.78125 0  0.875 -0.78125 0  0.90625 -0.78125 0  0.9375 -0.78125 0  0.96875 -0.78125 0  1 -0.78125 0  -1 -0.75 0  -0.96875 -0.75 0  -0.9375 -0.75 0  -0.90625 -0.75 0  -0.875 -0.75 0  -0.84375 -0.75 0  -0.8125 -0.75 0  -0.78125 -0.75 0  -0.75 -0.75 0  -0.71875 -0.75 0  -0.6875 -0.75 0  -0.65625 -0.75 0  -0.625 -0.75 0  -0.59375 -0.75 0  -0.5625 -0.75 0  -0.53125 -0.75 0  -0.5 -0.75 0  -0.46875 -0.75 0  -0.4375 -0.75 0  -0.40625 -0.75
[...]
<PointData  Scalars="f_15"> 
<DataArray  type="Float64"  Name="f_15"  format="ascii">-4.3857889444360881e-01  -4.3436530920471128e-01  -4.2188647920574351e-01  -4.0162195888535762e-01  -3.7435050239499179e-01  -3.4112013651356199e-01  -3.0320788556608785e-01  -2.6207069609504507e-01  -2.1928944722180435e-01  -1.7650819834856379e-01  -1.3537100887752099e-01  -9.7458757930046783e-02  -6.4228392048616967e-02  -3.6956935558251199e-02  -1.6692415237865244e-02  -4.2135852388975725e-03  0.0000000000000000e+00  -4.2135852388975725e-03  -1.6692415237865268e-02  -3.6956935558251219e-02  -6.4228392048616995e-02  -9.7458757930046824e-02  -1.3537100887752113e-01  -1.7650819834856388e-01  -2.1928944722180441e-01  -2.6207069609504507e-01  -3.0320788556608780e-01  -3.4112013651356204e-01  -3.7435050239499179e-01  -4.0162195888535762e-01  -4.2188647920574357e-01  -4.3436530920471128e-01  -4.3857889444360881e-01  -4.3436530920471128e-01  -4.2188647920574357e-01  -4.0162195888535762e-01  -3.7435050239499179e-01  -3.4112013651356204e-01  -3.0320788556608780e-01  -2.6207069609504507e-01  -2.1928944722180441e-01  -1.7650819834856388e-01  -1.3537100887752113e-01  -9.7458757930046824e-02  -6.4228392048616995e-02  -3.6956935558251219e-02  -1.6692415237865268e-02  -4.2135852388975725e-03  0.0000000000000000e+00  -4.2135852388975725e-03  -1.6692415237865244e-02  -3.6956935558251199e-02  -6.4228392048616967e-02  -9.7458757930046783e-02  -1.3537100887752099e-01  -1.7650819834856379e-01  -2.1928944722180435e-01  -2.6207069609504507e-01  -3.0320788556608785e-01  -3.4112013651356199e-01  -3.7435050239499179e-01  -4.0162195888535762e-01  -4.2188647920574351e-01  -4.3436530920471128e-01  -4.3857889444360881e-01  -4.3436530920471128e-01  -3.4910972135299223e-01  -3.4001526239071272e-01  -3.1729740341433960e-01  -2.8575718910405595e-01  -2.4575469270958603e-01  -1.9881716392427376e-01  -1.4680144360824116e-01  -9.1712060887135669e-02  -3.5577295617277030e-02  1.9638419141158804e-02  7.2099991481452894e-02  1.2015136893320048e-01  1.6235356693959724e-01  1.9751380343024655e-01  2.2470747685580061e-01  2.4329400055479217e-01  2.5292698824839954e-01  2.5355901882465742e-01  2.4544091617063152e-01  2.2911521276931768e-01  2.0540286222288379e-01  1.7538134271838635e-01  1.4035073548754295e-01  1.0178259245713739e-01  6.1245341724601630e-02  2.0301960022409197e-02  -1.9616825408825807e-02  -5.7347017661912213e-02  -9.2102278759927950e-02  -1.2352516690867128e-01  -1.5165582810217501e-01  -1.7682449125536298e-01  -1.9950356828405424e-01  -2.2016747199570191e-01  -2.3919708369257148e-01  -2.5684083526949469e-01  -2.7322090766677493e-01  -2.8836211643378340e-01  -3.0222304194988842e-01  -3.1471855611077343e-01  -3.2573264257446827e-01  -3.3512657791731015e-01  -3.4274871033306864e-01  -3.4845010162816420e-01  -3.5210663037479611e-01  -3.5364491981342300e-01  -3.5306708152218774e-01  -3.5046862220388741e-01  -3.4604436511392767e-01  -3.4007937787765669e-01  -3.3292453054191928e-01  -3.2496157222778371e-01  -3.1656557364076982e-01  -3.0808938885210019e-01  -2.9987882201427452e-01  -2.9240193144121185e-01  -2.8633867430889531e-01  -2.8300346872110704e-01  -2.8365964227852630e-01  -2.9117431407576977e-01  -3.0319453703304311e-01  -3.3047331385370587e-01  -3.3436820315316906e-01  -4.3436530920471128e-01  -4.2188647920574351e-01  -3.2690010396867014e-01  -3.4708798116324252e-01  -3.3232740399556820e-01  -3.0960476481465277e-01  -2.7815333143203513e-01  -2.3984098501921922e-01  -1.9651773821804985e-01  -1.5014289593227481e-01  -1.0267534159620441e-01  -5.5992632807401951e-02  -1.1829325853119469e-02  2.8269079651760672e-02  6.2981570123495381e-02  9.1239774528515644e-02  1.1225034400122683e-01  1.2551165612970414e-01  1.3082431891934920e-01  1.2829475543033858e-01  1.1833132596744815e-01  1.0163239451311348e-01  7.9165345127307454e-02  5.2134177544321619e-02  2.1931200343121997e-02  -9.9337839797301163e-03  -4.1932930071838237e-02  -7.2648284902469093e-02  -1.0091435653828154e-01  -1.2594472601696594e-01  -1.4740330897761098e-01  -1.6539072965947449e-01  -1.8034472242585867e-01  -1.9288558251244209e-01  -2.0365487104894445e-01  -2.1318980269164434e-01  -2.2185492459342099e-01  -2.2983023441871581e-01  -2.3714048600803786e-01  -2.4370569316610605e-01  -2.4939565286883683e-01  -2.5407731905977321e-01  -2.5765011890818101e-01  -2.6006836930420330e-01  -2.6135203210794289e-01  -2.6158744871083617e-01  -2.6091991467250791e-01  -2.5954010997413840e-01  -2.5766702091885413e-01  -2.5553026586222183e-01  -2.5335477271421508e-01  -2.5135014441514164e-01  -2.4970599698782883e-01  -2.4859533785728408e-01  -2.4818548059345136e-01  -2.4866979862721642e-01  -2.5030286166973098e-01  -2.5351784962128615e-01  -2.5890650710460056e-01  -2.6760134742863073e-01  -2.8023371522578644e-01  -2.9901146432098125e-01  -3.1909611881897187e-01  -3.5003719990096399e-01  -3.4338535339335807e-01  -4.2188647920574351e-01  -4.0162195888535762e-01  -3.0356628379161188e-01  -3.2112886840807620e-01  -3.0533572913059381e-01  -2.8433712783410431e-01  -2.5437899800742386e-01  -2.1744268736694869e-01  -1.7513208006852563e-01  -1.2928686899024414e-01  -8.1821171765747033e-02  -3.4629266960510344e-02  1.0498068045447739e-02  5.1939385515649777e-02  8.8292200811209615e-02  1.1840943829407652e-01  1.4142574099677768e-01  1.5677588921748048e-01  1.6420659865986575e-01  1.6378211218710814e-01  1.5588311948829456e-01  1.4119737183736672e-01  1.2069862324809649e-01  9.5608400717419856e-02  6.7333578680798603e-02  3.7373929508321316e-02  7.2002139179736767e-03  -2.1884498610327388e-02  -4.8873781949019236e-02  -7.3143672674113758e-02  -9.4469605646583771e-02  -1.1297031656849994e-01  -1.2899914278326793e-01  -1.4301732915862386e-01  -1.5548210487374253e-01  -1.6676942749099974e-01  -1.7713639776580276e-01  -1.8671759274627847e-01  -1.9554441665079861e-01  -2.0357594940078308e-01  -2.1073192989905892e-01  -2.1692187579884400e-01  -2.2206756733269603e-01  -2.2611851522305509e-01  -2.2906131377835603e-01  -2.3092425235371697e-01  -2.3177850335132591e-01  -2.3173699002075571e-01  -2.3095172565533903e-01  -2.2961020690417500e-01  -2.2793120268588984e-01  -2.2616050364622445e-01  -2.2456706147417552e-01  -2.2344252045288995e-01  -2.2310367806798023e-01  -2.2391454666819746e-01  -2.2629931579183174e-01  -2.3084667144331636e-01  -2.3819816830249757e-01  -2.4946119339173711e-01  -2.6469725235256525e-01  -2.8574189775105829e-01  -3.0509918873117498e-01  -3.3423833359928934e-01  -3.1562067811223260e-01  -4.0162195888535762e-01  -3.7435050239499179e-01  -2.8778304222978918e-01  -2.9959078233831171e-01  -2.8472002426608839e-01  -2.6493404326160497e-01  -2.3736711251192974e-01  -2.0378425436098860e-01  -1.6541970822580007e-01  -1.2383782344063812e-01  -8.0709788898543244e-02  -3.7732488426886916e-02  3.4599985366392883e-03  4.1371261258902357e-02  7.4702167917419571e-02  1.0239555127810521e-01  1.2366794904331470e-01  1.3803057475024161e-01  1.4530094446452108e-01  1.4560548366547651e-01  1.3937204787366378e-01  1.2730989073897905e-01  1.1037328228392133e-01  8.9704640463242460e-02  6.6554723075144026e-02  4.2182415990193858e-02  1.7744515815565083e-02  -5.8060460316271710e-03  -2.7791802182063709e-02  -4.7835671404613166e-02  -6.5835718418352174e-02  -8.1900985869728979e-02  -9.6268800994107728e-02  -1.0922432476023539e-01  -1.2103678585896767e-01  -1.3191861008522279e-01  -1.4200697478850144e-01  -1.5136350868267298e-01  -1.5998633553944486e-01  -1.6782879727083289e-01  -1.7482013691139714e-01  -1.8088487271808590e-01  -1.8595898314473897e-01  -1.9000222828984467e-01  -1.9300665101418726e-01  -1.9500173432118983e-01  -1.9605678025004752e-01  -1.9628114849098510e-01  -1.9582294882755602e-01  -1.9486684208729518e-01  -1.9363153973204483e-01  -1.9236790494163869e-01  -1.9135814495379966e-01  -1.9091925458616557e-01  -1.9140817347549705e-01  -1.9324725769884912e-01  -1.9692672134831188e-01  -2.0311210936769036e-01  -2.1243816640766044e-01  -2.2598780549432027e-01  -2.4322975110688838e-01  -2.6587161511157326e-01  -2.8388986019122592e-01  -3.1219101333927995e-01  -2.8475044349199213e-01  -3.7435050239499179e-01  -3.4112013651356199e-01  -2.7949154973100004e-01  -2.8147232154016960e-01  -2.6435680925234406e-01  -2.4305281176191135e-01  -2.1563795561802432e-01  -1.8322940261690168e-01  -1.4678428935045162e-01  -1.0757615013281049e-01  -6.7006709821690116e-02  -2.6546827321196679e-02  1.2347030711011359e-02  4.8309170000626421e-02  8.0131436382270729e-02  1.0681721640631069e-01  1.2762193275521508e-01  1.4208041905234478e-01  1.5002174404065918e-01  1.5157135415129364e-01  1.4713942200753485e-01  1.3739330096979344e-01  1.2321186256090946e-01  1.0562077079275145e-01  8.5711143648445842e-02  6.4549041482985306e-02  4.3088269034376410e-02  2.2101262066115440e-02  2.1402825128588004e-03  -1.6466120280740446e-02  -3.3585451639186248e-02  -4.9233308588583866e-02  -6.3518251725703662e-02  -7.6590545996910744e-02  -8.8601614722369090e-02  -9.9676808494156624e-02  -1.0990114060924151e-01  -1.1931588397157812e-01  -1.2792325596503346e-01  -1.3569622209931181e-01  -1.4259078945596959e-01  -1.4855863233509090e-01  -1.5355864018205587e-01  -1.5756656243868289e-01  -1.6058252262719158e-01  -1.6263644324770468e-01  -1.6379169469159963e-01  -1.6414728878386167e-01  -1.6383903573586109e-01  -1.6304003404786410e-01  -1.6196091664150633e-01  -1.6085057562683530e-01  -1.5999768862817368e-01  -1.5973646508917555e-01  -1.6045252109130120e-01  -1.6261117113511350e-01  -1.6674869788192018e-01  -1.7358976041646465e-01  -1.8373480459633632e-01  -1.9824649773879119e-01  -2.1595386955455717e-01  -2.3868546247676103e-01  -2.5387311379642485e-01  -2.8112074498744349e-01  -2.4411597077101577e-01  -3.4112013651356199e-01  -3.0320788556608785e-01  -2.7760070276794058e-01  -2.6835010670065007e-01  -2.4864560512776304e-01  -2.2540341237842340e-01  -1.9751900673067410e-01  -1.6577076659322285e-01  -1.3094030151444846e-01  -9.4044748268900497e-02  -5.6232365996465007e-02  -1.8728805184817256e-02  1.7234605700154584e-02  5.0489035451604700e-02  7.9991403868689137e-02  1.0487816986537520e-01  1.2450703676948986e-01  1.3848518718877090e-01  1.4668326198458323e-01  1.4923444989101772e-01  1.4651792047492962e-01  1.3912607583061795e-01  1.2781604195787266e-01  1.1344789387818520e-01  9.6914930408023153e-02  7.9074097989649123e-02  6.0685976289074219e-02  4.2372588049391979e-02  2.4597611561414025e-02  7.6686377177499132e-03  -8.2431780567125690e-03  -2.3073013998553653e-02  -3.6828757630194449e-02  -4.9559314206531799e-02  -6.1328254636020332e-02  -7.2194472634906692e-02  -8.2200148595416425e-02  -9.1365473573370742e-02  -9.9688938168778191e-02  -1.0715173156048396e-01  -1.1372465732776380e-01  -1.1937619712819968e-01  -1.2408058739872690e-01  -1.2782521894580967e-01  -1.3061693934797469e-01  -1.3248718322166819e-01  -1.3349595499807820e-01  -1.3373488007495990e-01  -1.3332951527766548e-01  -1.3244127571064726e-01  -1.3126926184714549e-01  -1.3005281262791746e-01  -1.2907489898461560e-01  -1.2867027378349533e-01  -1.2923243465159640e-01  -1.3124614903564344e-01  -1.3526742639452266e-01  -1.4205672274609205e-01  -1.5214909095523640e-01  -1.6659938768105995e-01  -1.8358381402276386e-01  -2.0535546824103390e-01  -2.1679758070990179e-01  -2.4320949660965241e-01  -1.9675980055924699e-01  -3.0320788556608785e-01  -2.6207069609504507e-01  -2.8032211274634822e-01  -2.5955162330213594e-01  -2.3732626178326979e-01  -2.1190557239274249e-01  -1.8314194275885579e-01  -1.5154305754037284e-01  -1.1772851142497666e-01  -8.2515727854875959e-02  -4.6844286559311742e-02  -1.1724879230686717e-02  2.1818618589057898e-02  5.2806772444133489e-02  8.0359848265018879e-02  1.0374644035429227e-01  1.2242233938927438e-01  1.3605718887387669e-01  1.4454727495650896e-01  1.4801346828136189e-01  1.4678404131412079e-01  1.4136306101431773e-01  1.3238642780339752e-01  1.2056936277193131e-01  1.0665076886229867e-01  9.1340849160281054e-02  7.5278028818457313e-02  5.8999530412347352e-02  4.2927286910306728e-02  2.7368142103997458e-02  1.2525237996086128e-02  -1.4834454241054510e-03  -1.4603379897600900e-02  -2.6821896233649108e-02  -3.8149077002707518e-02  -4.8602589048617750e-02  -5.8197114785366745e-02  -6.6938390083600252e-02  -7.4821354311363442e-02  -8.1831586407559900e-02  -8.7949053097302152e-02  -9.3153208953809546e-02  -9.7428638097928913e-02  -1.0077063768843768e-01  -1.0319037037793299e-01  -1.0471940779728292e-01  -1.0541364055486636e-01  -1.0535662855574554e-01  -1.0466255500662748e-01  -1.0347903391609864e-01  -1.0199007339797324e-01  -1.0041999376041187e-01  -9.9038344781357965e-02  -9.8170113854072483e-02  -9.8203549965833747e-02  -9.9627116758599366e-02  -1.0299738571853158e-01  -1.0909300552369017e-01  -1.1836079268279408e-01  -1.3187245284891586e-01  -1.4716418356455779e-01  -1.6720882615572968e-01  -1.7430501174579596e-01  -2.0023195144207828e-01  -1.4431925430128906e-01  -2.6207069609504507e-01  -2.1928944722180435e-01  -2.8595527346757793e-01  -2.5400357911458893e-01  -2.2978990007797631e-01  -2.0245339346358560e-01  -1.7289458895111293e-01  -1.4136908459845901e-01  -1.0838776480510091e-01  -7.4618165775121675e-02  -4.0831786828526194e-02  -7.8593088971464654e-03  2.3457746828142705e-02  5.2315269022478142e-02  7.7992453035089629e-02  9.9892354102919217e-02  1.1757431583097541e-01  1.3077588647989405e-01  1.3942258168927227e-01  1.4362466743206495e-01  1.4366118029898672e-01  1.3995248375138883e-01  1.3302392567489216e-01  1.2346420993976964e-01  1.1188286936752952e-01  9.8871241469261392e-02  8.4970689874475938e-02  7.0650440346060495e-02  5.6295800808911348e-02  4.2206014265783694e-02  2.8599924733308600e-02  1.5627093291161874e-02  3.3819198050871226e-03  -8.0814053999468879e-03  -1.8734886436851103e-02  -2.8564871834001269e-02  -3.7563117017560543e-02  -4.5720987990024692e-02  -5.3026678756226991e-02  -5.9464983496240652e-02  -6.5019044760556713e-02  -6.9673416107604386e-02  -7.3417881070167543e-02  -7.6251541420683439e-02  -7.8186881217988238e-02  -7.9253597110117924e-02  -7.9502156057270693e-02  -7.9007092177542954e-02  -7.7870177529473297e-02  -7.6223684753812360e-02  -7.4234041720911886e-02  -7.2106705231708673e-02  -7.0092209633964772e-02  -6.8498078488247446e-02  -6.7697194953607778e-02  -6.8169083061262070e-02  -7.0455455171049980e-02  -7.5339261709199218e-02  -8.3165889749070868e-02  -9.5057680629077310e-02  -1.0794890483469002e-01  -1.2579039101209735e-01  -1.2825921156356859e-01  -1.5414152329683917e-01  -8.8861061350057877e-02  -2.1928944722180435e-01  -1.7650819834856379e-01  -2.9328210539727034e-01  -2.5075381719847406e-01  -2.2518538768119956e-01  -1.9626559408226948e-01  -1.6607468818264332e-01  -1.3463180811846343e-01  -1.0237077469986260e-01  -6.9835997454558471e-02  -3.7661733209022885e-02  -6.5295908481061513e-03  2.2872583912838154e-02  4.9890626739516358e-02  7.3941360042994828e-02  9.4545192644295284e-02  1.1135187270972426e-01  1.2415755208230193e-01  1.3291186094213780e-01  1.3771449590602400e-01  1.3880169583510341e-01  1.3652398502069824e-01  1.3131741509455289e-01  1.2367125182841994e-01  1.1409531657455034e-01  1.0309007722836085e-01  9.1121954947713066e-02  7.8605430974006726e-02  6.5892498270245584e-02  5.3269083256864316e-02  4.0957351377705051e-02  2.9122392543180674e-02  1.7881644669407570e-02  7.3154780704874703e-03  -2.5223908299507837e-03  -1.1595685863537880e-02  -1.9878203983617303e-02  -2.7348621369493026e-02  -3.3987467982987393e-02  -3.9776067014197038e-02  -4.4697063167986419e-02  -4.8736139306392243e-02  -5.1884499777594059e-02  -5.4141798674927480e-02  -5.5519237057201701e-02  -5.6042694880149325e-02  -5.5755808345215839e-02  -5.4723032140455270e-02  -5.3032769811161326e-02  -5.0800821434928922e-02  -4.8174416416228022e-02  -4.5337722479231790e-02  -4.2518675514677244e-02  -4.0002180085882001e-02  -3.8138738828320536e-02  -3.7389606382716219e-02  -3.8270664620893277e-02  -4.1559482606374133e-02  -4.7497880084076259e-02  -5.7295930356174390e-02  -6.7345115612825815e-02  -8.2767005244811745e-02  -8.0595622959313884e-02  -1.0689202466276526e-01  -3.2411162744341748e-02  -1.7650819834856379e-01  -1.3537100887752099e-01  -3.0156403903641626e-01  -2.4912635547372519e-01  -2.2278657041939487e-01  -1.9259887424256950e-01  -1.6195362288348850e-01  -1.3063822730747651e-01  -9.9036149985555724e-02  -6.7591719093224006e-02  -3.6826749743403803e-02  -7.2986566477070162e-03  2.0433650536234645e-02  4.5842706909697349e-02  6.8462538935274070e-02  8.7914361979227931e-02  1.0392642657332181e-01  1.1634672794803130e-01  1.2514775101638739e-01  1.3042301650382149e-01  1.3237591631988255e-01  1.3130201841023420e-01  1.2756664572702286e-01  1.2157992626261351e-01  1.1377165808229625e-01  1.0456815017332026e-01  9.4372783720425013e-02  8.3551416935619169e-02  7.2423097395709138e-02  6.1255914569786948e-02  5.0267336499712025e-02  3.9628045357069021e-02  2.9468135781098727e-02  1.9884545973977975e-02  1.0948710069939130e-02  2.7136298766011211e-03  -4.7802001521031331e-03  -1.1500323391695856e-02  -1.7419404255238975e-02  -2.2513773956681152e-02  -2.6763241980929598e-02  -3.0151901169483596e-02  -3.2669663457922340e-02  -3.4314271514654417e-02  -3.5093608854368331e-02  -3.5028170628938156e-02  -3.4153654463587681e-02  -3.2523683089670720e-02  -3.0212771502227728e-02  -2.7319764035076591e-02  -2.3972044079063701e-02  -2.0331395854303710e-02  -1.6601351754837467e-02  -1.3041247313772255e-02  -9.9749561497746164e-03  -7.8391933232275935e-03  -7.1175623956023131e-03  -8.5762790276019338e-03  -1.2361978481916664e-02  -1.9805129172951828e-02  -2.6829270860422052e-02  -3.9832864643217142e-02  -3.3225894664474731e-02  -6.0359805621975376e-02  2.3068885530376400e-02  -1.3537100887752099e-01  -9.7458757930046783e-02  -3.1035942222349067e-01  -2.4867926563374282e-01  -2.2202891043898210e-01  -1.9081872172641637e-01  -1.5985182300597786e-01  -1.2868618660687606e-01  -9.7678283118762810e-02  -6.7189609389286822e-02  -3.7648263686137447e-02  -9.5071531011776279e-03  1.6783364747308242e-02  4.0802429574089132e-02  6.2182591273814029e-02  8.0629820673554842e-02  9.5938576421102609e-02  1.0800109459097872e-01  1.1681040887212130e-01  1.2245706513818737e-01  1.2512000547033370e-01  1.2505258615318976e-01  1.2256510617599729e-01  1.1800547485184698e-01  1.1173971394311871e-01  1.0413385978094543e-01  9.5538525317692718e-02  8.6276972738699401e-02  7.6637079680226608e-02  6.6867156120704943e-02  5.7175198271109673e-02  4.7730923352318426e-02  3.8669785317686015e-02  3.0098156326048262e-02  2.2098914569608323e-02  1.4736817925413108e-02  8.0631984825319664e-03  2.1196958815577998e-03  -3.0590994070045304e-03  -7.4440808033812656e-03  -1.1011036605851883e-02  -1.3740876416139271e-02  -1.5620494932075693e-02  -1.6644106283746657e-02  -1.6814911940075439e-02  -1.6147015251924083e-02  -1.4667548515720868e-02  -1.2419047951323894e-02  -9.4621870118211486e-03  -5.8791106468146417e-03  -1.7776747330055715e-03  2.7025214664053278e-03  7.3824873549963969e-03  1.2029294160223887e-02  1.6347250480843165e-02  1.9927362511362429e-02  2.2320220412431938e-02  2.2773931530836910e-02  2.1220038506301199e-02  1.6187246484863506e-02  1.2134683104498929e-02  1.3784353174125070e-03  1.2046755875611648e-02  -1.6280174891675995e-02  7.5751354825823056e-02  -9.7458757930046783e-02  -6.4228392048616967e-02  -3.1933484357483488e-01  -2.4911748932338021e-01  -2.2247079238607340e-01  -1.9041031778312120e-01  -1.5920816176871405e-01  -1.2819227761741753e-01  -9.7710232584346857e-02  -6.8054034751660372e-02  -3.9573230399204559e-02  -1.2632122652616878e-02  1.2410958340071729e-02  3.5225355205238999e-02  5.5526822092383021e-02  7.3092928411878672e-02  8.7774350192091330e-02  9.9501524215903817e-02  1.0828639755996894e-01  1.1421935305424191e-01  1.1746173689384659e-01  1.1823477107681811e-01  1.1680588481101491e-01  1.1347367638413633e-01  1.0855273740268355e-01  1.0235947788720512e-01  9.5199877113307185e-02  8.