<?xml version="1.0"?>
<VTKFile type="UnstructuredGrid"  version="0.1"  >
<UnstructuredGrid>
<Piece  NumberOfPoints="4225" NumberOfCells="8192">
<Points>
<DataArray  type="Float64"  NumberOfComponents="3"  format="ascii">-1 -1 0  -0.96875 -1 0  -0.9375 -1 0  -0.90625 -1 0  -0.875 -1 0  -0.84375 -1 0  -0.8125 -1 0  -0.78125 -1 0  -0.75 -1 0  -0.71875 -1 0  -0.6875 -1 0  -0.65625 -1 0  -0.625 -1 0  -0.59375 -1 0  -0.5625 -1 0  -0.53125 -1 0  -0.5 -1 0  -0.46875 -1 0  -0.4375 -1 0  -0.40625 -1 0  -0.375 -1 0  -0.34375 -1 0  -0.3125 -1 0  -0.28125 -1 0  -0.25 -1 0  -0.21875 -1 0  -0.1875 -1 0  -0.15625 -1 0  -0.125 -1 0  -0.09375 -1 0  -0.0625 -1 0  -0.03125 -1 0  0 -1 0  0.03125 -1 0  0.0625 -1 0  0.09375 -1 0  0.125 -1 0  0.15625 -1 0  0.1875 -1 0  0.21875 -1 0  0.25 -1 0  0.28125 -1 0  0.3125 -1 0  0.34375 -1 0  0.375 -1 0  0.40625 -1 0  0.4375 -1 0  0.46875 -1 0  0.5 -1 0  0.53125 -1 0  0.5625 -1 0  0.59375 -1 0  0.625 -1 0  0.65625 -1 0  0.6875 -1 0  0.71875 -1 0  0.75 -1 0  0.78125 -1 0  0.8125 -1 0  0.84375 -1 0  0.875 -1 0  0.90625 -1 0  0.9375 -1 0  0.96875 -1 0  1 -1 0  -1 -0.96875 0  -0.96875 -0.96875 0  -0.9375 -0.96875 0  -0.90625 -0.96875 0  -0.875 -0.96875 0  -0.84375 -0.96875 0  -0.8125 -0.96875 0  -0.78125 -0.96875 0  -0.75 -0.96875 0  -0.71875 -0.96875 0  -0.6875 -0.96875 0  -0.65625 -0.96875 0  -0.625 -0.96875 0  -0.59375 -0.96875 0  -0.5625 -0.96875 0  -0.53125 -0.96875 0  -0.5 -0.96875 0  -0.46875 -0.96875 0  -0.4375 -0.96875 0  -0.40625 -0.96875 0  -0.375 -0.96875 0  -0.34375 -0.96875 0  -0.3125 -0.96875 0  -0.28125 -0.96875 0  -0.25 -0.96875 0  -0.21875 -0.96875 0  -0.1875 -0.96875 0  -0.15625 -0.96875 0  -0.125 -0.96875 0  -0.09375 -0.96875 0  -0.0625 -0.96875 0  -0.03125 -0.96875 0  0 -0.96875 0  0.03125 -0.96875 0  0.0625 -0.96875 0  0.09375 -0.96875 0  0.125 -0.96875 0  0.15625 -0.96875 0  0.1875 -0.96875 0  0.21875 -0.96875 0  0.25 -0.96875 0  0.28125 -0.96875 0  0.3125 -0.96875 0  0.34375 -0.96875 0  0.375 -0.96875 0  0.40625 -0.96875 0  0.4375 -0.96875 0  0.46875 -0.96875 0  0.5 -0.96875 0  0.53125 -0.96875 0  0.5625 -0.96875 0  0.59375 -0.96875 0  0.625 -0.96875 0  0.65625 -0.96875 0  0.6875 -0.96875 0  0.71875 -0.96875 0  0.75 -0.96875 0  0.78125 -0.96875 0  0.8125 -0.96875 0  0.84375 -0.96875 0  0.875 -0.96875 0  0.90625 -0.96875 0  0.9375 -0.96875 0  0.96875 -0.96875 0  1 -0.96875 0  -1 -0.9375 0  -0.96875 -0.9375 0  -0.9375 -0.9375 0  -0.90625 -0.9375 0  -0.875 -0.9375 0  -0.84375 -0.9375 0  -0.8125 -0.9375 0  -0.78125 -0.9375 0  -0.75 -0.9375 0  -0.71875 -0.9375 0  -0.6875 -0.9375 0  -0.65625 -0.9375 0  -0.625 -0.9375 0  -0.59375 -0.9375 0  -0.5625 -0.9375 0  -0.53125 -0.9375 0  -0.5 -0.9375 0  -0.46875 -0.9375 0  -0.4375 -0.9375 0  -0.40625 -0.9375 0  -0.375 -0.9375 0  -0.34375 -0.9375 0  -0.3125 -0.9375 0  -0.28125 -0.9375 0  -0.25 -0.9375 0  -0.21875 -0.9375 0  -0.1875 -0.9375 0  -0.15625 -0.9375 0  -0.125 -0.9375 0  -0.09375 -0.9375 0  -0.0625 -0.9375 0  -0.03125 -0.9375 0  0 -0.9375 0  0.03125 -0.9375 0  0.0625 -0.9375 0  0.09375 -0.9375 0  0.125 -0.9375 0  0.15625 -0.9375 0  0.1875 -0.9375 0  0.21875 -0.9375 0  0.25 -0.9375 0  0.28125 -0.9375 0  0.3125 -0.9375 0  0.34375 -0.9375 0  0.375 -0.9375 0  0.40625 -0.9375 0  0.4375 -0.9375 0  0.46875 -0.9375 0  0.5 -0.9375 0  0.53125 -0.9375 0  0.5625 -0.9375 0  0.59375 -0.9375 0  0.625 -0.9375 0  0.65625 -0.9375 0  0.6875 -0.9375 0  0.71875 -0.9375 0  0.75 -0.9375 0  0.78125 -0.9375 0  0.8125 -0.9375 0  0.84375 -0.9375 0  0.875 -0.9375 0  0.90625 -0.9375 0  0.9375 -0.9375 0  0.96875 -0.9375 0  1 -0.9375 0  -1 -0.90625 0  -0.96875 -0.90625 0  -0.9375 -0.90625 0  -0.90625 -0.90625 0  -0.875 -0.90625 0  -0.84375 -0.90625 0  -0.8125 -0.90625 0  -0.78125 -0.90625 0  -0.75 -0.90625 0  -0.71875 -0.90625 0  -0.6875 -0.90625 0  -0.65625 -0.90625 0  -0.625 -0.90625 0  -0.59375 -0.90625 0  -0.5625 -0.90625 0  -0.53125 -0.90625 0  -0.5 -0.90625 0  -0.46875 -0.90625 0  -0.4375 -0.90625 0  -0.40625 -0.90625 0  -0.375 -0.90625 0  -0.34375 -0.90625 0  -0.3125 -0.90625 0  -0.28125 -0.90625 0  -0.25 -0.90625 0  -0.21875 -0.90625 0  -0.1875 -0.90625 0  -0.15625 -0.90625 0  -0.125 -0.90625 0  -0.09375 -0.90625 0  -0.0625 -0.90625 0  -0.03125 -0.90625 0  0 -0.90625 0  0.03125 -0.90625 0  0.0625 -0.90625 0  0.09375 -0.90625 0  0.125 -0.90625 0  0.15625 -0.90625 0  0.1875 -0.90625 0  0.21875 -0.90625 0  0.25 -0.90625 0  0.28125 -0.90625 0  0.3125 -0.90625 0  0.34375 -0.90625 0  0.375 -0.90625 0  0.40625 -0.90625 0  0.4375 -0.90625 0  0.46875 -0.90625 0  0.5 -0.90625 0  0.53125 -0.90625 0  0.5625 -0.90625 0  0.59375 -0.90625 0  0.625 -0.90625 0  0.65625 -0.90625 0  0.6875 -0.90625 0  0.71875 -0.90625 0  0.75 -0.90625 0  0.78125 -0.90625 0  0.8125 -0.90625 0  0.84375 -0.90625 0  0.875 -0.90625 0  0.90625 -0.90625 0  0.9375 -0.90625 0  0.96875 -0.90625 0  1 -0.90625 0  -1 -0.875 0  -0.96875 -0.875 0  -0.9375 -0.875 0  -0.90625 -0.875 0  -0.875 -0.875 0  -0.84375 -0.875 0  -0.8125 -0.875 0  -0.78125 -0.875 0  -0.75 -0.875 0  -0.71875 -0.875 0  -0.6875 -0.875 0  -0.65625 -0.875 0  -0.625 -0.875 0  -0.59375 -0.875 0  -0.5625 -0.875 0  -0.53125 -0.875 0  -0.5 -0.875 0  -0.46875 -0.875 0  -0.4375 -0.875 0  -0.40625 -0.875 0  -0.375 -0.875 0  -0.34375 -0.875 0  -0.3125 -0.875 0  -0.28125 -0.875 0  -0.25 -0.875 0  -0.21875 -0.875 0  -0.1875 -0.875 0  -0.15625 -0.875 0  -0.125 -0.875 0  -0.09375 -0.875 0  -0.0625 -0.875 0  -0.03125 -0.875 0  0 -0.875 0  0.03125 -0.875 0  0.0625 -0.875 0  0.09375 -0.875 0  0.125 -0.875 0  0.15625 -0.875 0  0.1875 -0.875 0  0.21875 -0.875 0  0.25 -0.875 0  0.28125 -0.875 0  0.3125 -0.875 0  0.34375 -0.875 0  0.375 -0.875 0  0.40625 -0.875 0  0.4375 -0.875 0  0.46875 -0.875 0  0.5 -0.875 0  0.53125 -0.875 0  0.5625 -0.875 0  0.59375 -0.875 0  0.625 -0.875 0  0.65625 -0.875 0  0.6875 -0.875 0  0.71875 -0.875 0  0.75 -0.875 0  0.78125 -0.875 0  0.8125 -0.875 0  0.84375 -0.875 0  0.875 -0.875 0  0.90625 -0.875 0  0.9375 -0.875 0  0.96875 -0.875 0  1 -0.875 0  -1 -0.84375 0  -0.96875 -0.84375 0  -0.9375 -0.84375 0  -0.90625 -0.84375 0  -0.875 -0.84375 0  -0.84375 -0.84375 0  -0.8125 -0.84375 0  -0.78125 -0.84375 0  -0.75 -0.84375 0  -0.71875 -0.84375 0  -0.6875 -0.84375 0  -0.65625 -0.84375 0  -0.625 -0.84375 0  -0.59375 -0.84375 0  -0.5625 -0.84375 0  -0.53125 -0.84375 0  -0.5 -0.84375 0  -0.46875 -0.84375 0  -0.4375 -0.84375 0  -0.40625 -0.84375 0  -0.375 -0.84375 0  -0.34375 -0.84375 0  -0.3125 -0.84375 0  -0.28125 -0.84375 0  -0.25 -0.84375 0  -0.21875 -0.84375 0  -0.1875 -0.84375 0  -0.15625 -0.84375 0  -0.125 -0.84375 0  -0.09375 -0.84375 0  -0.0625 -0.84375 0  -0.03125 -0.84375 0  0 -0.84375 0  0.03125 -0.84375 0  0.0625 -0.84375 0  0.09375 -0.84375 0  0.125 -0.84375 0  0.15625 -0.84375 0  0.1875 -0.84375 0  0.21875 -0.84375 0  0.25 -0.84375 0  0.28125 -0.84375 0  0.3125 -0.84375 0  0.34375 -0.84375 0  0.375 -0.84375 0  0.40625 -0.84375 0  0.4375 -0.84375 0  0.46875 -0.84375 0  0.5 -0.84375 0  0.53125 -0.84375 0  0.5625 -0.84375 0  0.59375 -0.84375 0  0.625 -0.84375 0  0.65625 -0.84375 0  0.6875 -0.84375 0  0.71875 -0.84375 0  0.75 -0.84375 0  0.78125 -0.84375 0  0.8125 -0.84375 0  0.84375 -0.84375 0  0.875 -0.84375 0  0.90625 -0.84375 0  0.9375 -0.84375 0  0.96875 -0.84375 0  1 -0.84375 0  -1 -0.8125 0  -0.96875 -0.8125 0  -0.9375 -0.8125 0  -0.90625 -0.8125 0  -0.875 -0.8125 0  -0.84375 -0.8125 0  -0.8125 -0.8125 0  -0.78125 -0.8125 0  -0.75 -0.8125 0  -0.71875 -0.8125 0  -0.6875 -0.8125 0  -0.65625 -0.8125 0  -0.625 -0.8125 0  -0.59375 -0.8125 0  -0.5625 -0.8125 0  -0.53125 -0.8125 0  -0.5 -0.8125 0  -0.46875 -0.8125 0  -0.4375 -0.8125 0  -0.40625 -0.8125 0  -0.375 -0.8125 0  -0.34375 -0.8125 0  -0.3125 -0.8125 0  -0.28125 -0.8125 0  -0.25 -0.8125 0  -0.21875 -0.8125 0  -0.1875 -0.8125 0  -0.15625 -0.8125 0  -0.125 -0.8125 0  -0.09375 -0.8125 0  -0.0625 -0.8125 0  -0.03125 -0.8125 0  0 -0.8125 0  0.03125 -0.8125 0  0.0625 -0.8125 0  0.09375 -0.8125 0  0.125 -0.8125 0  0.15625 -0.8125 0  0.1875 -0.8125 0  0.21875 -0.8125 0  0.25 -0.8125 0  0.28125 -0.8125 0  0.3125 -0.8125 0  0.34375 -0.8125 0  0.375 -0.8125 0  0.40625 -0.8125 0  0.4375 -0.8125 0  0.46875 -0.8125 0  0.5 -0.8125 0  0.53125 -0.8125 0  0.5625 -0.8125 0  0.59375 -0.8125 0  0.625 -0.8125 0  0.65625 -0.8125 0  0.6875 -0.8125 0  0.71875 -0.8125 0  0.75 -0.8125 0  0.78125 -0.8125 0  0.8125 -0.8125 0  0.84375 -0.8125 0  0.875 -0.8125 0  0.90625 -0.8125 0  0.9375 -0.8125 0  0.96875 -0.8125 0  1 -0.8125 0  -1 -0.78125 0  -0.96875 -0.78125 0  -0.9375 -0.78125 0  -0.90625 -0.78125 0  -0.875 -0.78125 0  -0.84375 -0.78125 0  -0.8125 -0.78125 0  -0.78125 -0.78125 0  -0.75 -0.78125 0  -0.71875 -0.78125 0  -0.6875 -0.78125 0  -0.65625 -0.78125 0  -0.625 -0.78125 0  -0.59375 -0.78125 0  -0.5625 -0.78125 0  -0.53125 -0.78125 0  -0.5 -0.78125 0  -0.46875 -0.78125 0  -0.4375 -0.78125 0  -0.40625 -0.78125 0  -0.375 -0.78125 0  -0.34375 -0.78125 0  -0.3125 -0.78125 0  -0.28125 -0.78125 0  -0.25 -0.78125 0  -0.21875 -0.78125 0  -0.1875 -0.78125 0  -0.15625 -0.78125 0  -0.125 -0.78125 0  -0.09375 -0.78125 0  -0.0625 -0.78125 0  -0.03125 -0.78125 0  0 -0.78125 0  0.03125 -0.78125 0  0.0625 -0.78125 0  0.09375 -0.78125 0  0.125 -0.78125 0  0.15625 -0.78125 0  0.1875 -0.78125 0  0.21875 -0.78125 0  0.25 -0.78125 0  0.28125 -0.78125 0  0.3125 -0.78125 0  0.34375 -0.78125 0  0.375 -0.78125 0  0.40625 -0.78125 0  0.4375 -0.78125 0  0.46875 -0.78125 0  0.5 -0.78125 0  0.53125 -0.78125 0  0.5625 -0.78125 0  0.59375 -0.78125 0  0.625 -0.78125 0  0.65625 -0.78125 0  0.6875 -0.78125 0  0.71875 -0.78125 0  0.75 -0.78125 0  0.78125 -0.78125 0  0.8125 -0.78125 0  0.84375 -0.78125 0  0.875 -0.78125 0  0.90625 -0.78125 0  0.9375 -0.78125 0  0.96875 -0.78125 0  1 -0.78125 0  -1 -0.75 0  -0.96875 -0.75 0  -0.9375 -0.75 0  -0.90625 -0.75 0  -0.875 -0.75 0  -0.84375 -0.75 0  -0.8125 -0.75 0  -0.78125 -0.75 0  -0.75 -0.75 0  -0.71875 -0.75 0  -0.6875 -0.75 0  -0.65625 -0.75 0  -0.625 -0.75 0  -0.59375 -0.75 0  -0.5625 -0.75 0  -0.53125 -0.75 0  -0.5 -0.75 0  -0.46875 -0.75 0  -0.4375 -0.75 0  -0.40625 -0.75
[...]
<PointData  Scalars="f_15"> 
<DataArray  type="Float64"  Name="f_15"  format="ascii">-4.7162301868710427e-01  -4.6709196665737696e-01  -4.5367293635665401e-01  -4.3188161359391342e-01  -4.0255542668221272e-01  -3.6682136453825331e-01  -3.2605266713033509e-01  -2.8181605263649495e-01  -2.3581150934355211e-01  -1.8980696605060920e-01  -1.4557035155676903e-01  -1.0480165414885077e-01  -6.9067592004891459e-02  -3.9741405093190768e-02  -1.7950082330450232e-02  -4.5310520297273628e-03  0.0000000000000000e+00  -4.5310520297273628e-03  -1.7950082330450264e-02  -3.9741405093190789e-02  -6.9067592004891515e-02  -1.0480165414885083e-01  -1.4557035155676920e-01  -1.8980696605060929e-01  -2.3581150934355213e-01  -2.8181605263649495e-01  -3.2605266713033509e-01  -3.6682136453825348e-01  -4.0255542668221272e-01  -4.3188161359391342e-01  -4.5367293635665401e-01  -4.6709196665737696e-01  -4.7162301868710427e-01  -4.6709196665737696e-01  -4.5367293635665401e-01  -4.3188161359391342e-01  -4.0255542668221272e-01  -3.6682136453825348e-01  -3.2605266713033509e-01  -2.8181605263649495e-01  -2.3581150934355213e-01  -1.8980696605060929e-01  -1.4557035155676920e-01  -1.0480165414885083e-01  -6.9067592004891515e-02  -3.9741405093190789e-02  -1.7950082330450264e-02  -4.5310520297273628e-03  0.0000000000000000e+00  -4.5310520297273628e-03  -1.7950082330450232e-02  -3.9741405093190768e-02  -6.9067592004891459e-02  -1.0480165414885077e-01  -1.4557035155676903e-01  -1.8980696605060920e-01  -2.3581150934355211e-01  -2.8181605263649495e-01  -3.2605266713033509e-01  -3.6682136453825331e-01  -4.0255542668221272e-01  -4.3188161359391342e-01  -4.5367293635665401e-01  -4.6709196665737696e-01  -4.7162301868710427e-01  -4.6709196665737696e-01  -3.3953655466951288e-01  -2.8843142369178826e-01  -2.1656323281616785e-01  -1.3549712173651660e-01  -4.8309942881458547e-02  4.2259858837277196e-02  1.3384818273327442e-01  2.2425024892489892e-01  3.1134403708663949e-01  3.9307842854686426e-01  4.6750191461475787e-01  5.3281409593420692e-01  5.8742644750973627e-01  6.3002247761729890e-01  6.5961036286889441e-01  6.7556369198836486e-01  6.7764748090783111e-01  6.6602786973932704e-01  6.4126437377022583e-01  6.0428421645461872e-01  5.5633869456485574e-01  4.9894270308266264e-01  4.3379992385634036e-01  3.6271835212802639e-01  2.8752274709054321e-01  2.0997212968426168e-01  1.3169029892926531e-01  5.4115494909843513e-02  -2.1528256753805618e-02  -9.4239667194305196e-02  -1.6323340122179009e-01  -2.2792416334243729e-01  -2.8790690282516962e-01  -3.4293614434728698e-01  -3.9290484666029285e-01  -4.3782176237913822e-01  -4.7778600980017866e-01  -5.1295882427048201e-01  -5.4353386631782963e-01  -5.6970899366449457e-01  -5.9166274038319711e-01  -6.0953858764379998e-01  -6.2343873953291440e-01  -6.3342776076167751e-01  -6.3954460189663664e-01  -6.4182043777896536e-01  -6.4029869854470622e-01  -6.3505369288937052e-01  -6.2620438940042911e-01  -6.1392116345239456e-01  -5.9842433147364626e-01  -5.7997577579528115e-01  -5.5886436281353469e-01  -5.3539554334273953e-01  -5.0987036474907754e-01  -4.8263374755932864e-01  -4.5397078560125764e-01  -4.2465395588166899e-01  -3.9476232309802495e-01  -3.6856308308006464e-01  -3.4219926871123463e-01  -3.4395725742598621e-01  -3.1688622238248698e-01  -4.6709196665737696e-01  -4.5367293635665401e-01  -3.3178183529936672e-01  -3.1567270936210579e-01  -2.6547369075808908e-01  -2.1055893702502321e-01  -1.5064528849735884e-01  -8.7837797681625113e-02  -2.3900497189996386e-02  3.9511052088220332e-02  1.0082133803064758e-01  1.5852177872311440e-01  2.1118488450279999e-01  2.5749779841323517e-01  2.9630656638931341e-01  3.2666283531455254e-01  3.4786618344536935e-01  3.5949669953348767e-01  3.6143423939229807e-01  3.5386194325083642e-01  3.3725306162224228e-01  3.1234111823310434e-01  2.8007504475256756e-01  2.4156229923034464e-01  1.9800487487016935e-01  1.5063434681854415e-01  1.0065290501787191e-01  4.9186491124967514e-02  -2.7458562861252052e-03  -5.4245628546792053e-02  -1.0453396583950425e-01  -1.5294136696123781e-01  -1.9889402837514916e-01  -2.4190202246187398e-01  -2.8155254924071510e-01  -3.1750901031409806e-01  -3.4951477088854066e-01  -3.7739927119909983e-01  -4.0108411601937588e-01  -4.2058702847105622e-01  -4.3602234216541746e-01  -4.4759701808258273e-01  -4.5560171310067277e-01  -4.6039644630529103e-01  -4.6239097479982266e-01  -4.6202034987843743e-01  -4.5971716546466856e-01  -4.5588265583148857e-01  -4.5085974809533325e-01  -4.4491124731882176e-01  -4.3820635533122265e-01  -4.3081775421299306e-01  -4.2273036156080734e-01  -4.1386195901259759e-01  -4.0409246885553174e-01  -3.9330685396877341e-01  -3.8142580407563725e-01  -3.6851020967988268e-01  -3.5466093548055921e-01  -3.4067710687652825e-01  -3.2644891558751193e-01  -3.1682349366758389e-01  -3.0461287129930842e-01  -3.2326436075555048e-01  -2.8189727683381549e-01  -4.5367293635665401e-01  -4.3188161359391342e-01  -3.3828812695570637e-01  -3.1017706622652330e-01  -2.5619803029879024e-01  -1.9985929588151496e-01  -1.3846010182659704e-01  -7.4333209786134502e-02  -9.0474356198719155e-03  5.5833363439539915e-02  1.1878176824938282e-01  1.7830175496321057e-01  2.3294982557463906e-01  2.8137413690916274e-01  3.2236510985642036e-01  3.5490977948803859e-01  3.7824235808220757e-01  3.9188460594332963e-01  3.9567103873345560e-01  3.8975581654721547e-01  3.7459992704924050e-01  3.5093922751476586e-01  3.1973579488258430e-01  2.8211695423296967e-01  2.3930786929193282e-01  1.9256448607383683e-01  1.4311343360598638e-01  9.2104205925692642e-02  4.0576643592835006e-02  -1.0556003562359202e-02  -6.0510659522698206e-02  -1.0862857190480756e-01  -1.5436448963225705e-01  -1.9727481104587818e-01  -2.3700736107597173e-01  -2.7329395941288032e-01  -3.0594560308638857e-01  -3.3484924133077892e-01  -3.5996477341910454e-01  -3.8132104554721724e-01  -3.9900996720662479e-01  -4.1317837970307830e-01  -4.2401770668861810e-01  -4.3175184196838051e-01  -4.3662395872357007e-01  -4.3888316034471259e-01  -4.3877194581545420e-01  -4.3651551657265913e-01  -4.3231377798563386e-01  -4.2633675787808217e-01  -4.1872381917616958e-01  -4.0958692787024620e-01  -3.9901774989985589e-01  -3.8709917944577410e-01  -3.7391886578545624e-01  -3.5959403644862287e-01  -3.4427796427998975e-01  -3.2825854910522340e-01  -3.1179271892742766e-01  -2.9589034222988997e-01  -2.8014699179071861e-01  -2.7012505620865418e-01  -2.5472350263975341e-01  -2.7563273339424921e-01  -2.0593572076272310e-01  -4.3188161359391342e-01  -4.0255542668221272e-01  -3.5832270703515556e-01  -3.1768103741240161e-01  -2.6661218154346439e-01  -2.1342717577335549e-01  -1.5690615139713443e-01  -9.8886697201234955e-02  -4.0503046865089598e-02  1.6981843234295683e-02  7.2339611212883223e-02  1.2437821626949487e-01  1.7196626627672204e-01  2.1406374208417456e-01  2.4975778005392937e-01  2.7829934953970015e-01  2.9913627874955334e-01  3.1193846826542232e-01  3.1661195122257124e-01  3.1329979906738015e-01  3.0236927312577749e-01  2.8438626105224618e-01  2.6007936036150886e-01  2.3029718367461380e-01  1.9596300720933546e-01  1.5803099040637214e-01  1.1744752745896160e-01  7.5120251841123295e-02  3.1895781917720294e-02  -1.1454019264273186e-02  -5.4238637691792040e-02  -9.5850328718239078e-02  -1.3576249468943480e-01  -1.7352683582378078e-01  -2.0877049745163187e-01  -2.4119377161793992e-01  -2.7056828378630965e-01  -2.9673524796490214e-01  -3.1960316622843582e-01  -3.3914444554922296e-01  -3.5539051699679292e-01  -3.6842531531303702e-01  -3.7837712251793065e-01  -3.8540902089249307e-01  -3.8970829118333222e-01  -3.9147532286991193e-01  -3.9091267097703519e-01  -3.8821510127750003e-01  -3.8356148024562459e-01  -3.7710943167577832e-01  -3.6899348931157450e-01  -3.5932737445152990e-01  -3.4821041288404403e-01  -3.3573889613885893e-01  -3.2201921542048073e-01  -3.0719345631310341e-01  -2.9143987954708289e-01  -2.7508204887487880e-01  -2.5836117719682045e-01  -2.4237090867357691e-01  -2.2627596602876382e-01  -2.1644787747815666e-01  -1.9773872699882888e-01  -2.2153808224507848e-01  -1.2574356197353653e-01  -4.0255542668221272e-01  -3.6682136453825331e-01  -3.8456265254100808e-01  -3.2910896616996632e-01  -2.7858002996453912e-01  -2.2554037005402217e-01  -1.7084433877020103e-01  -1.1540895499901949e-01  -6.0112891046300021e-02  -5.9726520006983834e-03  4.6000043217976488e-02  9.4802337038824236e-02  1.3947206952303157e-01  1.7911827962682442e-01  2.1295415304590887e-01  2.4032972750100670e-01  2.6076131359446708e-01  2.7395430669995985e-01  2.7981668050804898e-01  2.7846126704462665e-01  2.7019630832104091e-01  2.5550494388231226e-01  2.3501568168088410e-01  2.0946670971716874e-01  1.7966755665751688e-01  1.4646150576350750e-01  1.1069180866289050e-01  7.3173804723059691e-02  3.4674073896367466e-02  -4.1033856565982681e-03  -4.2524783884175479e-02  -8.0029397464388058e-02  -1.1612926363670223e-01  -1.5040716759040518e-01  -1.8251401892930003e-01  -2.1216620117764370e-01  -2.3914308404030879e-01  -2.6328448595602333e-01  -2.8448778631813115e-01  -3.0270427550663731e-01  -3.1793452064496952e-01  -3.3022256080258666e-01  -3.3964903228866611e-01  -3.4632336791008789e-01  -3.5037549358845987e-01  -3.5194742456278100e-01  -3.5118540026380946e-01  -3.4823310272488639e-01  -3.4322663839929324e-01  -3.3629174971079195e-01  -3.2754371659601306e-01  -3.1709017625448688e-01  -3.0503675513262896e-01  -2.9149629661641963e-01  -2.7659817554978150e-01  -2.6051047179994352e-01  -2.4342979291384009e-01  -2.2569970295229502e-01  -2.0751400133239950e-01  -1.9003254571387412e-01  -1.7192586548926803e-01  -1.6054972253940736e-01  -1.3651115739053005e-01  -1.6218223764758316e-01  -3.8997268234475163e-02  -3.6682136453825331e-01  -3.2605266713033509e-01  -4.1306829970132486e-01  -3.4276516193091433e-01  -2.9352393592060921e-01  -2.4096249171674750e-01  -1.8824334962635997e-01  -1.3552680179407947e-01  -8.3530744420376613e-02  -3.3028882188799409e-02  1.5170411646151674e-02  6.0255698370891203e-02  1.0144768968934689e-01  1.3802831893720008e-01  1.6936907318084038e-01  1.9495690359487847e-01  2.1441607998676701e-01  2.2752425103027485e-01  2.3422111570151344e-01  2.3460886651353666e-01  2.2894420717636810e-01  2.1762272855834064e-01  2.0115702043488809e-01  1.8015057483777080e-01  1.5526968376910283e-01  1.2721562449084964e-01  9.6699017831447659e-02  6.4417831353147839e-02  3.1039805384838984e-02  -2.8104802708930616e-03  -3.6560255542729736e-02  -6.9693619175569058e-02  -1.0175388145895793e-01  -1.3234405795511256e-01  -1.6112619835879927e-01  -1.8782003927240892e-01  -2.1220117095082808e-01  -2.3409878106092571e-01  -2.5339283196222351e-01  -2.7001058633008201e-01  -2.8392231961100894e-01  -2.9513625645686847e-01  -3.0369273774064065e-01  -3.0965786753280872e-01  -3.1311684704641241e-01  -3.1416743383010609e-01  -3.1291386760670881e-01  -3.0946179330005663e-01  -3.0391453575056898e-01  -2.9637120314669013e-01  -2.8692680736789022e-01  -2.7567472162652334e-01  -2.6271115844652271e-01  -2.4814275309020059e-01  -2.3209304933698496e-01  -2.1472291772226729e-01  -1.9621129439264468e-01  -1.7688677479959769e-01  -1.5685991466527366e-01  -1.3734699859120025e-01  -1.1648193528522573e-01  -1.0276833274629431e-01  -7.2366333157800555e-02  -9.9576811813535462e-02  5.0945711460283941e-02  -3.2605266713033509e-01  -2.8181605263649495e-01  -4.4191770045482853e-01  -3.5701775127756857e-01  -3.0959949862733760e-01  -2.5732882038723104e-01  -2.0616141884509756e-01  -1.5555729847609648e-01  -1.0611987488530408e-01  -5.8422384837223298e-02  -1.3108271036451751e-02  2.9168667864634526e-02  6.7774550067043610e-02  1.0212332202794235e-01  1.3170203280731485e-01  1.5609286909098388e-01  1.7499130358072956e-01  1.8821924429622755e-01  1.9573224914104997e-01  1.9762020593039212e-01  1.9410142213129172e-01  1.8551064047087859e-01  1.7228204529792604e-01  1.5492873675250451e-01  1.3402037144179113e-01  1.1016068251215039e-01  8.3966391133438165e-02  5.6048673816851587e-02  2.6997894513039241e-02  -2.6281376547476229e-03  -3.2312535166385617e-02  -6.1584752772097739e-02  -9.0023651032139024e-02  -1.1725880323795880e-01  -1.4297056862834104e-01  -1.6688930692377343e-01  -1.8879395341015340e-01  -2.0851003774496438e-01  -2.2590714472812121e-01  -2.4089577420094299e-01  -2.5342357899985157e-01  -2.6347099545875075e-01  -2.7104636147792710e-01  -2.7618067773382521e-01  -2.7892224848568298e-01  -2.7933148314733258e-01  -2.7747619365038173e-01  -2.7342770710181191e-01  -2.6725812771805874e-01  -2.5903899494785126e-01  -2.4884152836537307e-01  -2.3673860354905135e-01  -2.2280817926696195e-01  -2.0713927797771459e-01  -1.8983594852874996e-01  -1.7103624108380269e-01  -1.5088461537364051e-01  -1.2967858150511383e-01  -1.0742928512200564e-01  -8.5410833982106804e-02  -6.1196359498568512e-02  -4.4561491970946089e-02  -7.0663746942088391e-03  -3.5589735563664467e-02  1.4185820430675264e-01  -2.8181605263649495e-01  -2.3581150934355211e-01  -4.7020035289232470e-01  -3.7092921770321524e-01  -3.2596291509341269e-01  -2.7406855827866539e-01  -2.2436984755769010e-01  -1.7563203581040643e-01  -1.2842123567940211e-01  -8.3154499666908785e-02  -4.0342474962589768e-02  -5.0731094586776580e-04  3.5840495542309184e-02  6.8228888583094421e-02  9.6246260774201758e-02  1.1956005920071321e-01  1.3793155262833090e-01  1.5122617780941722e-01  1.5941902296175270e-01  1.6259514049737631e-01  1.6094482862117662e-01  1.5475428358704865e-01  1.4439249286669806e-01  1.3029538282414863e-01  1.1294849025085794e-01  9.2869319235446501e-02  7.0590523757364687e-02  4.6644736107888302e-02  2.1551653328816176e-02  -4.1923766081265190e-03  -3.0122242504802787e-02  -5.5809653554157589e-02  -8.0866745657440842e-02  -1.0494808855318953e-01  -1.2775145483816544e-01  -1.4901762074202993e-01  -1.6852941823447143e-01  -1.8611012711584668e-01  -2.0162129447548705e-01  -2.1495997795762592e-01  -2.2605547860929628e-01  -2.3486558080252409e-01  -2.4137243784429385e-01  -2.4557820381675305e-01  -2.4750064865645233e-01  -2.4716893200917789e-01  -2.4461982795048090e-01  -2.3989460630792508e-01  -2.3303683152748525e-01  -2.2409122843032606e-01  -2.1310375300871279e-01  -2.0012296210916200e-01  -1.8520239343686262e-01  -1.6840515393974345e-01  -1.4980577179871093e-01  -1.2950825987406786e-01  -1.0761131570621735e-01  -8.4370745640767242e-02  -5.9690235983972460e-02  -3.4901716562692232e-02  -7.0099525947334290e-03  1.2870371972433502e-02  5.7827340993907329e-02  2.8126644080478196e-02  2.3156823207478949e-01  -2.3581150934355211e-01  -1.8980696605060920e-01  -4.9744174702854066e-01  -3.8398437834626126e-01  -3.4202437689148485e-01  -2.9057019946096263e-01  -2.4225259662047088e-01  -1.9513914014160169e-01  -1.4982350779431938e-01  -1.0659922390756679e-01  -6.5874598024279488e-02  -2.8065618480678477e-02  6.4181887163310509e-03  3.7198462110451615e-02  6.3946645999660587e-02  8.6399715407048730e-02  1.0437232593160067e-01  1.1776523191399142e-01  1.2656967976425004e-01  1.3086772592344076e-01  1.3082855153632475e-01  1.2670120257481804e-01  1.1880431817480701e-01  1.0751369423118531e-01  9.3248532833224596e-02  7.6457334971396937e-02  5.7604223789448017e-02  3.7156410619585314e-02  1.5573245176289998e-02  -6.7028571625480666e-03  -2.9253568742642830e-02  -5.1689961291283761e-02  -7.3656179534658306e-02  -9.4831719377600349e-02  -1.1493255167112593e-01  -1.3371131574124262e-01  -1.5095673009426591e-01  -1.6649235686212843e-01  -1.8017477504695292e-01  -1.9189124686031006e-01  -2.0155690471887516e-01  -2.0911156342529749e-01  -2.1451622024473421e-01  -2.1774940901923287e-01  -2.1880351949648197e-01  -2.1768130490529355e-01  -2.1439272085089386e-01  -2.0895231629922723e-01  -2.0137729864899498e-01  -1.9168643658714990e-01  -1.7989982648954703e-01  -1.6603966668311709e-01  -1.5013166382156068e-01  -1.3220844468128234e-01  -1.1230967939302876e-01  -9.0499485611854419e-02  -6.6825636975553382e-02  -4.1496732812465235e-02  -1.4308525321833040e-02  1.3353742696245485e-02  4.5039454235774733e-02  6.8296216159467335e-02  1.2075842878648975e-01  8.9985722262517415e-02  3.1797262322490610e-01  -1.8980696605060920e-01  -1.4557035155676903e-01  -5.2332477005389033e-01  -3.9593424495079782e-01  -3.5740771913665187e-01  -3.0643651459484100e-01  -2.5944416960350719e-01  -2.1377564241833005e-01  -1.7010349336744357e-01  -1.2862489908142827e-01  -8.9672526541748052e-02  -5.3577669428466750e-02  -2.0667518482125228e-02  8.7572087834689900e-03  3.4437515418850526e-02  5.6169172413542690e-02  7.3812604772321974e-02  8.7299629309538454e-02  9.6636930923464079e-02  1.0190625275356416e-01  1.0326147094054304e-01  1.0092284242448378e-01  9.5168927932682890e-02  8.6326763723029123e-02  7.4760976067108340e-02  6.0862487227092948e-02  4.5037460743456714e-02  2.7696981344829615e-02  9.2478761017688090e-03  -9.9151071627212022e-03  -2.9415649722425941e-02  -4.8900770492600054e-02  -6.8044388325446695e-02  -8.6549689623528561e-02  -1.0415046590243215e-01  -1.2061157232713549e-01  -1.3572864587231809e-01  -1.4932717873642345e-01  -1.6126104148892917e-01  -1.7141051359465254e-01  -1.7967990558399352e-01  -1.8599483082680210e-01  -1.9029924118385227e-01  -1.9255231240692611e-01  -1.9272533384060564e-01  -1.9079871113604133e-01  -1.8675925159511719e-01  -1.8059783964913390e-01  -1.7230763974326888e-01  -1.6188289174842890e-01  -1.4931835614024166e-01  -1.3460948414678089e-01  -1.1775301032870641e-01  -9.8749329352673790e-02  -7.7601292782387199e-02  -5.4330969923236466e-02  -2.8934307790185358e-02  -1.5703183573081848e-03  2.8067401516781137e-02  5.8551348931036570e-02  9.3944297497725815e-02  1.2053402225128552e-01  1.8021624160052474e-01  1.4847215044468376e-01  3.9903237933821867e-01  -1.4557035155676903e-01  -1.0480165414885077e-01  -5.4756957990315092e-01  -4.0670321084818739e-01  -3.7187024363334675e-01  -3.2138610570748904e-01  -2.7565809745943315e-01  -2.3127702451845047e-01  -1.8903494448368502e-01  -1.4905227688788519e-01  -1.1160698370674811e-01  -7.6963109661788209e-02  -4.5381055543250712e-02  -1.7097397701524655e-02  7.6869101537417883e-03  2.8817095199517799e-02  4.6192424128077600e-02  5.9771534708958379e-02  6.9575132416437965e-02  7.5686091643210579e-02  7.8247094324344804e-02  7.7456061899314477e-02  7.3559744421530515e-02  6.6845921027297930e-02  5.7634707087471052e-02  4.6269483022432140e-02  3.3107909793498251e-02  1.8513444885021477e-02  2.8476569896050963e-03  -1.3536440561943256e-02  -3.0299941549321186e-02  -4.7122455313154725e-02  -6.3705424162786184e-02  -7.9774431316061628e-02  -9.5080611948021129e-02  -1.0940127316415278e-01  -1.2253982908950273e-01  -1.3432513623085435e-01  -1.4461031005689332e-01  -1.5327109104867309e-01  -1.6020382996370425e-01  -1.6532316807804454e-01  -1.6855949279894875e-01  -1.6985626781676183e-01  -1.6916733355968183e-01  -1.6645429409342269e-01  -1.6168408993239181e-01  -1.5482686143210969e-01  -1.4585417690644650e-01  -1.3473769416558010e-01  -1.2144827037070795e-01  -1.0595561748640123e-01  -8.8228192778153844e-02  -6.8234727128292344e-02  -4.5942019061484950e-02  -2.1330958616393770e-02  5.6517677685039196e-03  3.4896594378496175e-02  6.6800437648137867e-02  9.9911060748045358e-02  1.3873434116270139e-01  1.6845544207092103e-01  2.3474690103706189e-01  2.0214538002004898e-01  4.7280035474077658e-01  -1.0480165414885077e-01  -6.9067592004891459e-02  -5.6988472184171268e-01  -4.1632612642347816e-01  -3.8525145751156559e-01  -3.3522110209294670e-01  -2.9068192194142300e-01  -2.4744662670370293e-01  -2.0645493076398339e-01  -1.6776308964917924e-01  -1.3161003443698058e-01  -9.8206039775503198e-02  -6.7757033127387845e-02  -4.0446241224911965e-02  -1.6425795947345008e-02  4.1915452181663752e-03  2.1338432665677629e-02  3.4997017467088096e-02  4.5200960503353940e-02  5.2035417796893108e-02  5.5635092612834641e-02  5.6180571397263374e-02  5.3893205793381950e-02  4.9028893444095216e-02  4.1871123963669529e-02  3.2723678647603102e-02  2.1903341156947049e-02  9.73293090