<?xml version="1.0"?>
<VTKFile type="UnstructuredGrid"  version="0.1"  >
<UnstructuredGrid>
<Piece  NumberOfPoints="4225" NumberOfCells="8192">
<Points>
<DataArray  type="Float64"  NumberOfComponents="3"  format="ascii">-1 -1 0  -0.96875 -1 0  -0.9375 -1 0  -0.90625 -1 0  -0.875 -1 0  -0.84375 -1 0  -0.8125 -1 0  -0.78125 -1 0  -0.75 -1 0  -0.71875 -1 0  -0.6875 -1 0  -0.65625 -1 0  -0.625 -1 0  -0.59375 -1 0  -0.5625 -1 0  -0.53125 -1 0  -0.5 -1 0  -0.46875 -1 0  -0.4375 -1 0  -0.40625 -1 0  -0.375 -1 0  -0.34375 -1 0  -0.3125 -1 0  -0.28125 -1 0  -0.25 -1 0  -0.21875 -1 0  -0.1875 -1 0  -0.15625 -1 0  -0.125 -1 0  -0.09375 -1 0  -0.0625 -1 0  -0.03125 -1 0  0 -1 0  0.03125 -1 0  0.0625 -1 0  0.09375 -1 0  0.125 -1 0  0.15625 -1 0  0.1875 -1 0  0.21875 -1 0  0.25 -1 0  0.28125 -1 0  0.3125 -1 0  0.34375 -1 0  0.375 -1 0  0.40625 -1 0  0.4375 -1 0  0.46875 -1 0  0.5 -1 0  0.53125 -1 0  0.5625 -1 0  0.59375 -1 0  0.625 -1 0  0.65625 -1 0  0.6875 -1 0  0.71875 -1 0  0.75 -1 0  0.78125 -1 0  0.8125 -1 0  0.84375 -1 0  0.875 -1 0  0.90625 -1 0  0.9375 -1 0  0.96875 -1 0  1 -1 0  -1 -0.96875 0  -0.96875 -0.96875 0  -0.9375 -0.96875 0  -0.90625 -0.96875 0  -0.875 -0.96875 0  -0.84375 -0.96875 0  -0.8125 -0.96875 0  -0.78125 -0.96875 0  -0.75 -0.96875 0  -0.71875 -0.96875 0  -0.6875 -0.96875 0  -0.65625 -0.96875 0  -0.625 -0.96875 0  -0.59375 -0.96875 0  -0.5625 -0.96875 0  -0.53125 -0.96875 0  -0.5 -0.96875 0  -0.46875 -0.96875 0  -0.4375 -0.96875 0  -0.40625 -0.96875 0  -0.375 -0.96875 0  -0.34375 -0.96875 0  -0.3125 -0.96875 0  -0.28125 -0.96875 0  -0.25 -0.96875 0  -0.21875 -0.96875 0  -0.1875 -0.96875 0  -0.15625 -0.96875 0  -0.125 -0.96875 0  -0.09375 -0.96875 0  -0.0625 -0.96875 0  -0.03125 -0.96875 0  0 -0.96875 0  0.03125 -0.96875 0  0.0625 -0.96875 0  0.09375 -0.96875 0  0.125 -0.96875 0  0.15625 -0.96875 0  0.1875 -0.96875 0  0.21875 -0.96875 0  0.25 -0.96875 0  0.28125 -0.96875 0  0.3125 -0.96875 0  0.34375 -0.96875 0  0.375 -0.96875 0  0.40625 -0.96875 0  0.4375 -0.96875 0  0.46875 -0.96875 0  0.5 -0.96875 0  0.53125 -0.96875 0  0.5625 -0.96875 0  0.59375 -0.96875 0  0.625 -0.96875 0  0.65625 -0.96875 0  0.6875 -0.96875 0  0.71875 -0.96875 0  0.75 -0.96875 0  0.78125 -0.96875 0  0.8125 -0.96875 0  0.84375 -0.96875 0  0.875 -0.96875 0  0.90625 -0.96875 0  0.9375 -0.96875 0  0.96875 -0.96875 0  1 -0.96875 0  -1 -0.9375 0  -0.96875 -0.9375 0  -0.9375 -0.9375 0  -0.90625 -0.9375 0  -0.875 -0.9375 0  -0.84375 -0.9375 0  -0.8125 -0.9375 0  -0.78125 -0.9375 0  -0.75 -0.9375 0  -0.71875 -0.9375 0  -0.6875 -0.9375 0  -0.65625 -0.9375 0  -0.625 -0.9375 0  -0.59375 -0.9375 0  -0.5625 -0.9375 0  -0.53125 -0.9375 0  -0.5 -0.9375 0  -0.46875 -0.9375 0  -0.4375 -0.9375 0  -0.40625 -0.9375 0  -0.375 -0.9375 0  -0.34375 -0.9375 0  -0.3125 -0.9375 0  -0.28125 -0.9375 0  -0.25 -0.9375 0  -0.21875 -0.9375 0  -0.1875 -0.9375 0  -0.15625 -0.9375 0  -0.125 -0.9375 0  -0.09375 -0.9375 0  -0.0625 -0.9375 0  -0.03125 -0.9375 0  0 -0.9375 0  0.03125 -0.9375 0  0.0625 -0.9375 0  0.09375 -0.9375 0  0.125 -0.9375 0  0.15625 -0.9375 0  0.1875 -0.9375 0  0.21875 -0.9375 0  0.25 -0.9375 0  0.28125 -0.9375 0  0.3125 -0.9375 0  0.34375 -0.9375 0  0.375 -0.9375 0  0.40625 -0.9375 0  0.4375 -0.9375 0  0.46875 -0.9375 0  0.5 -0.9375 0  0.53125 -0.9375 0  0.5625 -0.9375 0  0.59375 -0.9375 0  0.625 -0.9375 0  0.65625 -0.9375 0  0.6875 -0.9375 0  0.71875 -0.9375 0  0.75 -0.9375 0  0.78125 -0.9375 0  0.8125 -0.9375 0  0.84375 -0.9375 0  0.875 -0.9375 0  0.90625 -0.9375 0  0.9375 -0.9375 0  0.96875 -0.9375 0  1 -0.9375 0  -1 -0.90625 0  -0.96875 -0.90625 0  -0.9375 -0.90625 0  -0.90625 -0.90625 0  -0.875 -0.90625 0  -0.84375 -0.90625 0  -0.8125 -0.90625 0  -0.78125 -0.90625 0  -0.75 -0.90625 0  -0.71875 -0.90625 0  -0.6875 -0.90625 0  -0.65625 -0.90625 0  -0.625 -0.90625 0  -0.59375 -0.90625 0  -0.5625 -0.90625 0  -0.53125 -0.90625 0  -0.5 -0.90625 0  -0.46875 -0.90625 0  -0.4375 -0.90625 0  -0.40625 -0.90625 0  -0.375 -0.90625 0  -0.34375 -0.90625 0  -0.3125 -0.90625 0  -0.28125 -0.90625 0  -0.25 -0.90625 0  -0.21875 -0.90625 0  -0.1875 -0.90625 0  -0.15625 -0.90625 0  -0.125 -0.90625 0  -0.09375 -0.90625 0  -0.0625 -0.90625 0  -0.03125 -0.90625 0  0 -0.90625 0  0.03125 -0.90625 0  0.0625 -0.90625 0  0.09375 -0.90625 0  0.125 -0.90625 0  0.15625 -0.90625 0  0.1875 -0.90625 0  0.21875 -0.90625 0  0.25 -0.90625 0  0.28125 -0.90625 0  0.3125 -0.90625 0  0.34375 -0.90625 0  0.375 -0.90625 0  0.40625 -0.90625 0  0.4375 -0.90625 0  0.46875 -0.90625 0  0.5 -0.90625 0  0.53125 -0.90625 0  0.5625 -0.90625 0  0.59375 -0.90625 0  0.625 -0.90625 0  0.65625 -0.90625 0  0.6875 -0.90625 0  0.71875 -0.90625 0  0.75 -0.90625 0  0.78125 -0.90625 0  0.8125 -0.90625 0  0.84375 -0.90625 0  0.875 -0.90625 0  0.90625 -0.90625 0  0.9375 -0.90625 0  0.96875 -0.90625 0  1 -0.90625 0  -1 -0.875 0  -0.96875 -0.875 0  -0.9375 -0.875 0  -0.90625 -0.875 0  -0.875 -0.875 0  -0.84375 -0.875 0  -0.8125 -0.875 0  -0.78125 -0.875 0  -0.75 -0.875 0  -0.71875 -0.875 0  -0.6875 -0.875 0  -0.65625 -0.875 0  -0.625 -0.875 0  -0.59375 -0.875 0  -0.5625 -0.875 0  -0.53125 -0.875 0  -0.5 -0.875 0  -0.46875 -0.875 0  -0.4375 -0.875 0  -0.40625 -0.875 0  -0.375 -0.875 0  -0.34375 -0.875 0  -0.3125 -0.875 0  -0.28125 -0.875 0  -0.25 -0.875 0  -0.21875 -0.875 0  -0.1875 -0.875 0  -0.15625 -0.875 0  -0.125 -0.875 0  -0.09375 -0.875 0  -0.0625 -0.875 0  -0.03125 -0.875 0  0 -0.875 0  0.03125 -0.875 0  0.0625 -0.875 0  0.09375 -0.875 0  0.125 -0.875 0  0.15625 -0.875 0  0.1875 -0.875 0  0.21875 -0.875 0  0.25 -0.875 0  0.28125 -0.875 0  0.3125 -0.875 0  0.34375 -0.875 0  0.375 -0.875 0  0.40625 -0.875 0  0.4375 -0.875 0  0.46875 -0.875 0  0.5 -0.875 0  0.53125 -0.875 0  0.5625 -0.875 0  0.59375 -0.875 0  0.625 -0.875 0  0.65625 -0.875 0  0.6875 -0.875 0  0.71875 -0.875 0  0.75 -0.875 0  0.78125 -0.875 0  0.8125 -0.875 0  0.84375 -0.875 0  0.875 -0.875 0  0.90625 -0.875 0  0.9375 -0.875 0  0.96875 -0.875 0  1 -0.875 0  -1 -0.84375 0  -0.96875 -0.84375 0  -0.9375 -0.84375 0  -0.90625 -0.84375 0  -0.875 -0.84375 0  -0.84375 -0.84375 0  -0.8125 -0.84375 0  -0.78125 -0.84375 0  -0.75 -0.84375 0  -0.71875 -0.84375 0  -0.6875 -0.84375 0  -0.65625 -0.84375 0  -0.625 -0.84375 0  -0.59375 -0.84375 0  -0.5625 -0.84375 0  -0.53125 -0.84375 0  -0.5 -0.84375 0  -0.46875 -0.84375 0  -0.4375 -0.84375 0  -0.40625 -0.84375 0  -0.375 -0.84375 0  -0.34375 -0.84375 0  -0.3125 -0.84375 0  -0.28125 -0.84375 0  -0.25 -0.84375 0  -0.21875 -0.84375 0  -0.1875 -0.84375 0  -0.15625 -0.84375 0  -0.125 -0.84375 0  -0.09375 -0.84375 0  -0.0625 -0.84375 0  -0.03125 -0.84375 0  0 -0.84375 0  0.03125 -0.84375 0  0.0625 -0.84375 0  0.09375 -0.84375 0  0.125 -0.84375 0  0.15625 -0.84375 0  0.1875 -0.84375 0  0.21875 -0.84375 0  0.25 -0.84375 0  0.28125 -0.84375 0  0.3125 -0.84375 0  0.34375 -0.84375 0  0.375 -0.84375 0  0.40625 -0.84375 0  0.4375 -0.84375 0  0.46875 -0.84375 0  0.5 -0.84375 0  0.53125 -0.84375 0  0.5625 -0.84375 0  0.59375 -0.84375 0  0.625 -0.84375 0  0.65625 -0.84375 0  0.6875 -0.84375 0  0.71875 -0.84375 0  0.75 -0.84375 0  0.78125 -0.84375 0  0.8125 -0.84375 0  0.84375 -0.84375 0  0.875 -0.84375 0  0.90625 -0.84375 0  0.9375 -0.84375 0  0.96875 -0.84375 0  1 -0.84375 0  -1 -0.8125 0  -0.96875 -0.8125 0  -0.9375 -0.8125 0  -0.90625 -0.8125 0  -0.875 -0.8125 0  -0.84375 -0.8125 0  -0.8125 -0.8125 0  -0.78125 -0.8125 0  -0.75 -0.8125 0  -0.71875 -0.8125 0  -0.6875 -0.8125 0  -0.65625 -0.8125 0  -0.625 -0.8125 0  -0.59375 -0.8125 0  -0.5625 -0.8125 0  -0.53125 -0.8125 0  -0.5 -0.8125 0  -0.46875 -0.8125 0  -0.4375 -0.8125 0  -0.40625 -0.8125 0  -0.375 -0.8125 0  -0.34375 -0.8125 0  -0.3125 -0.8125 0  -0.28125 -0.8125 0  -0.25 -0.8125 0  -0.21875 -0.8125 0  -0.1875 -0.8125 0  -0.15625 -0.8125 0  -0.125 -0.8125 0  -0.09375 -0.8125 0  -0.0625 -0.8125 0  -0.03125 -0.8125 0  0 -0.8125 0  0.03125 -0.8125 0  0.0625 -0.8125 0  0.09375 -0.8125 0  0.125 -0.8125 0  0.15625 -0.8125 0  0.1875 -0.8125 0  0.21875 -0.8125 0  0.25 -0.8125 0  0.28125 -0.8125 0  0.3125 -0.8125 0  0.34375 -0.8125 0  0.375 -0.8125 0  0.40625 -0.8125 0  0.4375 -0.8125 0  0.46875 -0.8125 0  0.5 -0.8125 0  0.53125 -0.8125 0  0.5625 -0.8125 0  0.59375 -0.8125 0  0.625 -0.8125 0  0.65625 -0.8125 0  0.6875 -0.8125 0  0.71875 -0.8125 0  0.75 -0.8125 0  0.78125 -0.8125 0  0.8125 -0.8125 0  0.84375 -0.8125 0  0.875 -0.8125 0  0.90625 -0.8125 0  0.9375 -0.8125 0  0.96875 -0.8125 0  1 -0.8125 0  -1 -0.78125 0  -0.96875 -0.78125 0  -0.9375 -0.78125 0  -0.90625 -0.78125 0  -0.875 -0.78125 0  -0.84375 -0.78125 0  -0.8125 -0.78125 0  -0.78125 -0.78125 0  -0.75 -0.78125 0  -0.71875 -0.78125 0  -0.6875 -0.78125 0  -0.65625 -0.78125 0  -0.625 -0.78125 0  -0.59375 -0.78125 0  -0.5625 -0.78125 0  -0.53125 -0.78125 0  -0.5 -0.78125 0  -0.46875 -0.78125 0  -0.4375 -0.78125 0  -0.40625 -0.78125 0  -0.375 -0.78125 0  -0.34375 -0.78125 0  -0.3125 -0.78125 0  -0.28125 -0.78125 0  -0.25 -0.78125 0  -0.21875 -0.78125 0  -0.1875 -0.78125 0  -0.15625 -0.78125 0  -0.125 -0.78125 0  -0.09375 -0.78125 0  -0.0625 -0.78125 0  -0.03125 -0.78125 0  0 -0.78125 0  0.03125 -0.78125 0  0.0625 -0.78125 0  0.09375 -0.78125 0  0.125 -0.78125 0  0.15625 -0.78125 0  0.1875 -0.78125 0  0.21875 -0.78125 0  0.25 -0.78125 0  0.28125 -0.78125 0  0.3125 -0.78125 0  0.34375 -0.78125 0  0.375 -0.78125 0  0.40625 -0.78125 0  0.4375 -0.78125 0  0.46875 -0.78125 0  0.5 -0.78125 0  0.53125 -0.78125 0  0.5625 -0.78125 0  0.59375 -0.78125 0  0.625 -0.78125 0  0.65625 -0.78125 0  0.6875 -0.78125 0  0.71875 -0.78125 0  0.75 -0.78125 0  0.78125 -0.78125 0  0.8125 -0.78125 0  0.84375 -0.78125 0  0.875 -0.78125 0  0.90625 -0.78125 0  0.9375 -0.78125 0  0.96875 -0.78125 0  1 -0.78125 0  -1 -0.75 0  -0.96875 -0.75 0  -0.9375 -0.75 0  -0.90625 -0.75 0  -0.875 -0.75 0  -0.84375 -0.75 0  -0.8125 -0.75 0  -0.78125 -0.75 0  -0.75 -0.75 0  -0.71875 -0.75 0  -0.6875 -0.75 0  -0.65625 -0.75 0  -0.625 -0.75 0  -0.59375 -0.75 0  -0.5625 -0.75 0  -0.53125 -0.75 0  -0.5 -0.75 0  -0.46875 -0.75 0  -0.4375 -0.75 0  -0.40625 -0.75
[...]
<PointData  Scalars="f_15"> 
<DataArray  type="Float64"  Name="f_15"  format="ascii">-4.6496761300388756e-01  -4.6050050185116304e-01  -4.4727083696940401e-01  -4.2578702696073489e-01  -3.9687468259552933e-01  -3.6164488905351266e-01  -3.2145150754340895e-01  -2.7783914717594327e-01  -2.3248380650194370e-01  -1.8712846582794423e-01  -1.4351610546047841e-01  -1.0332272395037477e-01  -6.8092930408358121e-02  -3.9180586043152582e-02  -1.7696776034483486e-02  -4.4671111527244843e-03  0.0000000000000000e+00  -4.4671111527244843e-03  -1.7696776034483511e-02  -3.9180586043152610e-02  -6.8092930408358177e-02  -1.0332272395037483e-01  -1.4351610546047855e-01  -1.8712846582794437e-01  -2.3248380650194378e-01  -2.7783914717594327e-01  -3.2145150754340890e-01  -3.6164488905351277e-01  -3.9687468259552933e-01  -4.2578702696073489e-01  -4.4727083696940406e-01  -4.6050050185116304e-01  -4.6496761300388756e-01  -4.6050050185116304e-01  -4.4727083696940406e-01  -4.2578702696073489e-01  -3.9687468259552933e-01  -3.6164488905351277e-01  -3.2145150754340890e-01  -2.7783914717594327e-01  -2.3248380650194378e-01  -1.8712846582794437e-01  -1.4351610546047855e-01  -1.0332272395037483e-01  -6.8092930408358177e-02  -3.9180586043152610e-02  -1.7696776034483511e-02  -4.4671111527244843e-03  0.0000000000000000e+00  -4.4671111527244843e-03  -1.7696776034483486e-02  -3.9180586043152582e-02  -6.8092930408358121e-02  -1.0332272395037477e-01  -1.4351610546047841e-01  -1.8712846582794423e-01  -2.3248380650194370e-01  -2.7783914717594327e-01  -3.2145150754340895e-01  -3.6164488905351266e-01  -3.9687468259552933e-01  -4.2578702696073489e-01  -4.4727083696940401e-01  -4.6050050185116304e-01  -4.6496761300388756e-01  -4.6050050185116304e-01  -3.3253291223707010e-01  -2.9384201705258228e-01  -2.3557974792927264e-01  -1.6821249490032161e-01  -9.4065710385460480e-02  -1.5560161548090321e-02  6.5090409425225412e-02  1.4575136567250535e-01  2.2433448912492013e-01  2.9880965222219413e-01  3.6724516753431136e-01  4.2786287134210227e-01  4.7909704045176338e-01  5.1964952118930618e-01  5.4853622668820046e-01  5.6512235869430227e-01  5.6914484005563026e-01  5.6072114986453014e-01  5.4034369902131874e-01  5.0885888091179787e-01  4.6742968963288656e-01  4.1748124544849335e-01  3.6062953375758222e-01  2.9859597629135137e-01  2.3311352104329200e-01  1.6583347659835690e-01  9.8244504714209369e-02  3.1614769483266782e-02  -3.3035798979635697e-02  -9.4932875851258147e-02  -1.5352150969817444e-01  -2.0842751920050520e-01  -2.5941780463338227e-01  -3.0636715587677410e-01  -3.4923358968430646e-01  -3.8803991253620324e-01  -4.2285726584411282e-01  -4.5378748582614359e-01  -4.8094343771247799e-01  -5.0442923910038884e-01  -5.2432364066007275e-01  -5.4067015112926231e-01  -5.5347618160340151e-01  -5.6272186520446676e-01  -5.6837707820579642e-01  -5.7042379554347067e-01  -5.6887972991946312e-01  -5.6381914549172163e-01  -5.5538695119254666e-01  -5.4380349260551797e-01  -5.2935858552696713e-01  -5.1239612293861159e-01  -4.9328988181006966e-01  -4.7242238417604526e-01  -4.5015175711165961e-01  -4.2685387463722679e-01  -4.0282447071743271e-01  -3.7884738212741914e-01  -3.5517533024281389e-01  -3.3610681480349458e-01  -3.1861411469951534e-01  -3.2850185063548032e-01  -3.1014618813137712e-01  -4.6050050185116304e-01  -4.4727083696940401e-01  -3.1843578980109233e-01  -3.1584032518942123e-01  -2.7584579959226840e-01  -2.3064360134959189e-01  -1.7957136329900975e-01  -1.2458250903458432e-01  -6.7356886642386385e-02  -9.5447857255344937e-03  4.7227794201127597e-02  1.0136743948828557e-01  1.5134610060137627e-01  1.9574942609235030e-01  2.3333124680217476e-01  2.6306603886253055e-01  2.8419359061164651e-01  2.9625204222297036e-01  2.9909713983437586e-01  2.9290619468091833e-01  2.7816582572279169e-01  2.5564268078827335e-01  2.2633713480467019e-01  1.9142107522739560e-01  1.5216320700138217e-01  1.0984800381851965e-01  6.5697335319225628e-02  2.0805128528572876e-02  -2.3905568189611245e-02  -6.7697837056729382e-02  -1.1000923600755473e-01  -1.5042015296659375e-01  -1.8861301443793629e-01  -2.2433356529583390e-01  -2.5736264156170108e-01  -2.8750215091223036e-01  -3.1457453973855992e-01  -3.3843188052073869e-01  -3.5896976042813405e-01  -3.7614147826202804e-01  -3.8996944059245048e-01  -4.0055170972955795e-01  -4.0806271330385357e-01  -4.1274744042602884e-01  -4.1490906526555782e-01  -4.1489034182895013e-01  -4.1305018495193163e-01  -4.0973764886233494e-01  -4.0526657414501993e-01  -3.9989436168585218e-01  -3.9380828725688488e-01  -3.8712169280924541e-01  -3.7988093580461535e-01  -3.7208307490621850e-01  -3.6370016932455823e-01  -3.5471626669177408e-01  -3.4514883706326482e-01  -3.3515036297896228e-01  -3.2490428206632571e-01  -3.1528868513213720e-01  -3.0636621229625005e-01  -3.0283086420355337e-01  -2.9839381655197045e-01  -3.2236019074730476e-01  -2.9041139386519355e-01  -4.4727083696940401e-01  -4.2578702696073489e-01  -3.1599110972200883e-01  -3.0305952344950482e-01  -2.5933758567184739e-01  -2.1305232502192070e-01  -1.6073777640698231e-01  -1.0463648902260718e-01  -4.6254355759165589e-02  1.2847330609011528e-02  7.1096743902243270e-02  1.2691994003326210e-01  1.7877619433375866e-01  2.2521051172482545e-01  2.6491532376596216e-01  2.9679275128493671e-01  3.2000994215885437e-01  3.3404182097076612e-01  3.3869726801181815e-01  3.3412623023843935e-01  3.2080636052366251e-01  2.9950897537293569e-01  2.7124558102035984e-01  2.3719831700055566e-01  1.9864011793575945e-01  1.5685274694173618e-01  1.1305211192073550e-01  6.8329714266740116e-02  2.3616332361786039e-02  -2.0330284166365186e-02  -6.2916580985611079e-02  -1.0368968609771012e-01  -1.4230722506615254e-01  -1.7850788632513231e-01  -2.1208795293390414e-01  -2.4288619061573022e-01  -2.7077686557215197e-01  -2.9566890300616305e-01  -3.1750842617060232e-01  -3.3628205468823774e-01  -3.5201895852275972e-01  -3.6479052364996650e-01  -3.7470720676932184e-01  -3.8191279181937449e-01  -3.8657662760347183e-01  -3.8888472546889136e-01  -3.8903070124484018e-01  -3.8720761842196039e-01  -3.8360163371511269e-01  -3.7838818758243270e-01  -3.7173109344204341e-01  -3.6378471501562498e-01  -3.5469881702142958e-01  -3.4462677769384170e-01  -3.3373416120896898e-01  -3.2221906944067341e-01  -3.1031100406457091e-01  -2.9837182372014504e-01  -2.8672325606762988e-01  -2.7644135401273423e-01  -2.6726787166539201e-01  -2.6449741389778691e-01  -2.5804201434518520e-01  -2.8392080228918365e-01  -2.2728397316946600e-01  -4.2578702696073489e-01  -3.9687468259552933e-01  -3.2749229834630184e-01  -3.0333474294573837e-01  -2.6157693688979367e-01  -2.1754461658830859e-01  -1.6913160781733608e-01  -1.1822579538519211e-01  -6.5928770243829274e-02  -1.3509852152210058e-02  3.7761429793469393e-02  8.6622089774066685e-02  1.3184790386927267e-01  1.7229433305849826e-01  2.0694332224839437e-01  2.3495044223586173e-01  2.5568672163715539e-01  2.6877025346568750e-01  2.7408378720610344e-01  2.7177600836867127e-01  2.6224569533208170e-01  2.4610969631478893e-01  2.2415732516612008e-01  1.9729552392547117e-01  1.6649036672119572e-01  1.3271111188537932e-01  9.6882488814610548e-02  5.9849447628341115e-02  2.2356292733867290e-02  -1.4960296711218117e-02  -5.1566968951317751e-02  -8.7021972581625098e-02  -1.2096017253097498e-01  -1.5307843374368779e-01  -1.8312387487649465e-01  -2.1088617617711192e-01  -2.3619386983055435e-01  -2.5891371259015084e-01  -2.7895176936597937e-01  -2.9625487469182210e-01  -3.1081135069766636e-01  -3.2265029768148046e-01  -3.3183909405877221e-01  -3.3847911137218845e-01  -3.4269983164271484e-01  -3.4465182852689757e-01  -3.4449918160809462e-01  -3.4241211983663672e-01  -3.3856072855802921e-01  -3.3311062205605102e-01  -3.2622127424176300e-01  -3.1804759995175225e-01  -3.0874465081710617e-01  -2.9847645441789328e-01  -2.8742512123969438e-01  -2.7581370396093513e-01  -2.6389957255085200e-01  -2.5209019233220664e-01  -2.4070176243165253e-01  -2.3091756411543690e-01  -2.2205372662299827e-01  -2.2016193838525386e-01  -2.1123028978573949e-01  -2.3963812509428428e-01  -1.6082667217610558e-01  -3.9687468259552933e-01  -3.6164488905351266e-01  -3.4642813334772776e-01  -3.0839255890867628e-01  -2.6600093282858372e-01  -2.2138900105746406e-01  -1.7404771830985205e-01  -1.2505866284997263e-01  -7.5279250352388111e-02  -2.5745412398339832e-02  2.2490350685994063e-02  6.8362531729969089e-02  1.1082882052607028e-01  1.4890793738110333e-01  1.8172138623180320e-01  2.0853521387333063e-01  2.2879748482765452e-01  2.4216711515897021e-01  2.4853057968931852e-01  2.4800416398534059e-01  2.4092113284821220e-01  2.2780476495571275e-01  2.0932996240790389e-01  1.8627737124361576e-01  1.5948487367808320e-01  1.2980133034097363e-01  9.8046901495461289e-02  6.4982923979021806e-02  3.1292725058489533e-02  -2.4269919055396930e-03  -3.5665909829798399e-02  -6.7993632689547640e-02  -9.9049884817704645e-02  -1.2853398135233715e-01  -1.5619552479745283e-01  -1.8182739081446020e-01  -2.0526128912197533e-01  -2.2636547275753396e-01  -2.4504387142876149e-01  -2.6123573691887303e-01  -2.7491508278032478e-01  -2.8608932130882597e-01  -2.9479687018867390e-01  -3.0110364558881336e-01  -3.0509869261536038e-01  -3.0688924967118120e-01  -3.0659579931666719e-01  -3.0434760457454707e-01  -3.0027936162375279e-01  -2.9452940947465472e-01  -2.8723990128499222e-01  -2.7855916309570605e-01  -2.6864600775117531e-01  -2.5767718067048806e-01  -2.4585357612312325e-01  -2.3342163095845336e-01  -2.2065661764097708e-01  -2.0799357256557649e-01  -1.9570907258975226e-01  -1.8508275863894011e-01  -1.7494007118687765e-01  -1.7229177473144175e-01  -1.5897350744347435e-01  -1.8910151788847179e-01  -8.6840781933745739e-02  -3.6164488905351266e-01  -3.2145150754340895e-01  -3.6874425737023497e-01  -3.1669768482207239e-01  -2.7437767617092673e-01  -2.2955969614382879e-01  -1.8345621702686554e-01  -1.3655527574336576e-01  -8.9549182363706653e-02  -4.3244665869601517e-02  1.5098223752654319e-03  4.3848054060206268e-02  8.2924557149392814e-02  1.1794861735693433e-01  1.4821889273483232e-01  1.7315594419698854e-01  1.9233006126567245e-01  2.0548174957401466e-01  2.1253262688647945e-01  2.1358549556192361e-01  2.0891337728108350e-01  1.9893861302800156e-01  1.8420408670644831e-01  1.6533952954148953e-01  1.4302615110865860e-01  1.1796286140059233e-01  9.0836762300773616e-02  6.2299830068763919e-02  3.2952661007979188e-02  3.3352116956319629e-03  -2.6076385740665245e-02  -5.4868387527090029e-02  -8.2685066612794650e-02  -1.0922303235929708e-01  -1.3422552405911303e-01  -1.5747754706350839e-01  -1.7880218613922530e-01  -1.9805808683976969e-01  -2.1513774167148855e-01  -2.2996618126770893e-01  -2.4249958476589537e-01  -2.5272353270555076e-01  -2.6065065928911740e-01  -2.6631774118126500e-01  -2.6978228432808082e-01  -2.7111892193040255e-01  -2.7041588891586071e-01  -2.6777202806838551e-01  -2.6329464048206730e-01  -2.5709860607969659e-01  -2.4930693001709131e-01  -2.4005304246495915e-01  -2.2948445003169415e-01  -2.1776932411159763e-01  -2.0510078428061210e-01  -1.9171840749975913e-01  -1.7788253434774104e-01  -1.6402470201873964e-01  -1.5034775536409414e-01  -1.3822422231057499e-01  -1.2593781885609945e-01  -1.2164800502657633e-01  -1.0281828444259561e-01  -1.3437143032728283e-01  -8.7096156951271663e-03  -3.2145150754340895e-01  -2.7783914717594327e-01  -3.9223680252436061e-01  -3.2650366237188627e-01  -2.8478554132585199e-01  -2.3965060280735315e-01  -1.9445801465353518e-01  -1.4914251964975553e-01  -1.0425583786887173e-01  -6.0414035247885418e-02  -1.8297890691666933e-02  2.1390360093044417e-02  5.7961410197756080e-02  9.0769904425701986e-02  1.1924421123693722e-01  1.4291320729050738e-01  1.6142871202804512e-01  1.7458179361802750e-01  1.8231149913994982e-01  1.8470513147785728e-01  1.8199000684789091e-01  1.7451748033507733e-01  1.6274081187015479e-01  1.4718902776755105e-01  1.2843921498905816e-01  1.0708965644252440e-01  8.3735863649150533e-02  5.8950996885151333e-02  3.3271449392360194e-02  7.1876758081383229e-03  -1.8860272252278456e-02  -4.4483454581038591e-02  -6.9342157520788442e-02  -9.3142559193623367e-02  -1.1563291068205410e-01  -1.3659990722407020e-01  -1.5586560773351502e-01  -1.7328497835390488e-01  -1.8874393499613470e-01  -2.0215764828533000e-01  -2.1346886327897144e-01  -2.2264602651853596e-01  -2.2968111291325494e-01  -2.3458714061102584e-01  -2.3739547222331056e-01  -2.3815307828185558e-01  -2.3692001207346342e-01  -2.3376735357919398e-01  -2.2877590230603814e-01  -2.2203583522687936e-01  -2.1364748642972892e-01  -2.0372344222497010e-01  -1.9239159022338356e-01  -1.7980084541608862e-01  -1.6612370426135747e-01  -1.5157807569775383e-01  -1.3639295651241029e-01  -1.2098059988103516e-01  -1.0545155669847192e-01  -9.1274102732350468e-02  -7.6153629117458696e-02  -6.9549440527113357e-02  -4.4382673577717136e-02  -7.7176103818645356e-02  7.1539500669804454e-02  -2.7783914717594327e-01  -2.3248380650194370e-01  -4.1584764531241403e-01  -3.3677309248984216e-01  -2.9630510482419581e-01  -2.5101486857317901e-01  -2.0672286010875951e-01  -1.6282007699857193e-01  -1.1978817149973559e-01  -7.8093778967181240e-02  -3.8280080230005044e-02  -9.1159793768597172e-04  3.3455107265237240e-02  6.4299982991449220e-02  9.1164811676289106e-02  1.1367511174502667e-01  1.3155781868087557e-01  1.4465368812250121e-01  1.5292363617941798e-01  1.5644854601478198e-01  1.5542269236366937e-01  1.5014140466369719e-01  1.4098419972800896e-01  1.2839488073073319e-01  1.1286037492077235e-01  9.4889954171367710e-02  7.4996343541199356e-02  5.3679769442022879e-02  3.1415605905999094e-02  8.6457529259828664e-03  -1.4226487643372367e-02  -3.6838608151624125e-02  -5.8868887846470125e-02  -8.0034941363295017e-02  -1.0009150986378994e-01  -1.1882799866647814e-01  -1.3606610772316668e-01  -1.5165767159777274e-01  -1.6548273469779443e-01  -1.7744774300177052e-01  -1.8748376340018361e-01  -1.9554459213262573e-01  -2.0160473357848854e-01  -2.0565721875570875e-01  -2.0771138033996223e-01  -2.0779067070509061e-01  -2.0593073465598830e-01  -2.0217788787948945e-01  -1.9658821380445998e-01  -1.8922740727510684e-01  -1.8017148300195035e-01  -1.6950851597476288e-01  -1.5734105158746575e-01  -1.4379109056693809e-01  -1.2900119617897918e-01  -1.1315694956635322e-01  -9.6444750436131710e-02  -7.9246401100135602e-02  -6.1568990023386942e-02  -4.4976294874154957e-02  -2.6576175388934364e-02  -1.7223765089294261e-02  1.4762939333289062e-02  -1.9177419091330906e-02  1.5178031879381571e-01  -2.3248380650194370e-01  -1.8712846582794423e-01  -4.3906484510458182e-01  -3.4690643878747662e-01  -3.0826629812936285e-01  -2.6294257950210420e-01  -2.1951402108512352e-01  -1.7683524667242712e-01  -1.3537387813097795e-01  -9.5476517846975043e-02  -5.7577263850351966e-02  -2.2128281752702136e-02  1.0423056265920922e-02  3.9659542982120023e-02  6.5215381371941619e-02  8.6794211625499329e-02  1.0418327588493674e-01  1.1726318773680593e-01  1.2601280980875582e-01  1.3050907267143053e-01  1.3092184058072973e-01  1.2750440022635390e-01  1.2058040819330423e-01  1.1052847416263067e-01  9.7765600609374434e-02  8.2730765819142377e-02  6.5869711214270502e-02  4.7621801818725377e-02  2.8409451555430024e-02  8.6303249782594994e-03  -1.1347812781310758e-02  -3.1189925813787021e-02  -5.0594698102172014e-02  -6.9294206081984014e-02  -8.7052753540510106e-02  -1.0366527282998060e-01  -1.1895554993942581e-01  -1.3277444543733397e-01  -1.4499814408161457e-01  -1.5552644298611951e-01  -1.6428100891166944e-01  -1.7120359138356339e-01  -1.7625414424832792e-01  -1.7940891054853733e-01  -1.8065849349597959e-01  -1.8000605168138878e-01  -1.7746570213118465e-01  -1.7306129744827070e-01  -1.6682566815703695e-01  -1.5880047585964657e-01  -1.4903670374469527e-01  -1.3759601118577164e-01  -1.2455251867473914e-01  -1.0999714799476827e-01  -9.4037530055053803e-02  -7.6821049328387375e-02  -5.8485780530968284e-02  -3.9376042666845336e-02  -1.9391703518255879e-02  -1.8584153389919776e-04  2.1725882596896201e-02  3.4064875422898731e-02  7.3025794237478181e-02  3.7984929621322439e-02  2.2994021818954111e-01  -1.8712846582794423e-01  -1.4351610546047841e-01  -4.6156310556485503e-01  -3.5657111500175542e-01  -3.2022090765959155e-01  -2.7495388503270568e-01  -2.3237113341369753e-01  -1.9077541989349775e-01  -1.5066619020954214e-01  -1.1229651897431239e-01  -7.6016904132981442e-02  -4.2188505204316148e-02  -1.1168818326499016e-02  1.6710470646581654e-02  4.1160952838924431e-02  6.1952179573168314e-02  7.8922949431695658e-02  9.1988913558965213e-02  1.0114626992784143e-01  1.0647146556536470e-01  1.0811710804419943e-01  1.0630450068570364e-01  1.0131349293761806e-01  9.3470464424475999e-02  8.3135387141668307e-02  7.0688854796301936e-02  5.6519909013534597e-02  4.1015277140400715e-02  2.4550456608772499e-02  7.4828164574913198e-03  -9.8532931906759030e-03  -2.7149623118433445e-02  -4.4125593020249897e-02  -6.0528695171281621e-02  -7.6134075962348779e-02  -9.0743585179849304e-02  -1.0418452127496276e-01  -1.1630820969789862e-01  -1.2698850224126679e-01  -1.3612021548608541e-01  -1.4361752411784848e-01  -1.4941228957847447e-01  -1.5345235071825997e-01  -1.5569978379457669e-01  -1.5612920808536013e-01  -1.5472618540936517e-01  -1.5148582644616307e-01  -1.4641167525961196e-01  -1.3951498025749215e-01  -1.3081441633502774e-01  -1.2033632004693361e-01  -1.0811561366027167e-01  -9.4197054188970869e-02  -7.8638954383479814e-02  -6.1512170668646046e-02  -4.2923437616826460e-02  -2.2960884534118133e-02  -1.9270017470086084e-03  2.0382318764350142e-02  4.2238619074133912e-02  6.7682527989254296e-02  8.3063852805613625e-02  1.2881910592453460e-01  9.2706454010531042e-02  3.0399576355063518e-01  -1.4351610546047841e-01  -1.0332272395037477e-01  -4.8304080039644898e-01  -3.6559916828085487e-01  -3.3185199597852111e-01  -2.8668532613542919e-01  -2.4491887247319402e-01  -2.0427815064165164e-01  -1.6533194463501891e-01  -1.2825931950394839e-01  -9.3347293116347596e-02  -6.0883488858945851e-02  -3.1151574430273912e-02  -4.4121624895421862e-03  1.9111025000846316e-02  3.9242900344644741e-02  5.5865878785629888e-02  6.8925770375589557e-02  7.8434548337863910e-02  8.4470003987170694e-02  8.7172460125971934e-02  8.6738893295768574e-02  8.3414971992260029e-02  7.7485637436529683e-02  6.9264904403488453e-02  5.9085563127435882e-02  4.7289380362826580e-02  3.4218294306619983e-02  2.0206927215690777e-02  5.5766005579052126e-03  -9.3691344537932767e-03  -2.4347544489321214e-02  -3.9098533609461146e-02  -5.3385461080537454e-02  -6.6995201512201008e-02  -7.9737659178459541e-02  -9.1444915725692744e-02  -1.0197013448574423e-01  -1.1118630704442352e-01  -1.1898488733372684e-01  -1.2527434003854204e-01  -1.2997862250010359e-01  -1.3303561945649223e-01  -1.3439556674848949e-01  -1.3401950335209142e-01  -1.3187781563986742e-01  -1.2794893353818176e-01  -1.2221825196455358e-01  -1.1467733685475857e-01  -1.0532348798995589e-01  -9.4159691437783175e-02  -8.1195159928548116e-02  -6.6446100528146715e-02  -4.9938885671799410e-02  -3.1708362034436492e-02  -1.1821052107458744e-02  9.6829314693631964e-03  3.2544892338024912e-02  5.7062595988712370e-02  8.1453831897638440e-02  1.1024552272727074e-01  1.2855361222526579e-01  1.8059331700310974e-01  1.4344551691564136e-01  3.7201675769803116e-01  -1.0332272395037477e-01  -6.8092930408358121e-02  -5.0316087888681993e-01  -3.7392438450537885e-01  -3.4292053296383224e-01  -2.9785675032730269e-01  -2.5686190043318052e-01  -2.1706054683999676e-01  -1.7911806614405718e-01  -1.4315265926283732e-01  -1.0940340520155804e-01  -7.8098159694151764e-02  -4.9459575406819042e-02  -2.3688736609828641e-02  -9.5477453605599942e-04  1.8614287150262965e-02  3.4938330643179784e-02  4.7989605962117633e-02  5.7794734586638002e-02  6.4434301611842895e-02  6.8040171866884630e-02  6.8790820742961153e-02  6.6905051929700796e-02  6.2634578368135421e-02  5.6255964401284837e-02  4.8062434135005244e-02  3.8355997648460483e-02  2.7440263