<?xml version="1.0"?>
<VTKFile type="UnstructuredGrid"  version="0.1"  >
<UnstructuredGrid>
<Piece  NumberOfPoints="4225" NumberOfCells="8192">
<Points>
<DataArray  type="Float64"  NumberOfComponents="3"  format="ascii">-1 -1 0  -0.96875 -1 0  -0.9375 -1 0  -0.90625 -1 0  -0.875 -1 0  -0.84375 -1 0  -0.8125 -1 0  -0.78125 -1 0  -0.75 -1 0  -0.71875 -1 0  -0.6875 -1 0  -0.65625 -1 0  -0.625 -1 0  -0.59375 -1 0  -0.5625 -1 0  -0.53125 -1 0  -0.5 -1 0  -0.46875 -1 0  -0.4375 -1 0  -0.40625 -1 0  -0.375 -1 0  -0.34375 -1 0  -0.3125 -1 0  -0.28125 -1 0  -0.25 -1 0  -0.21875 -1 0  -0.1875 -1 0  -0.15625 -1 0  -0.125 -1 0  -0.09375 -1 0  -0.0625 -1 0  -0.03125 -1 0  0 -1 0  0.03125 -1 0  0.0625 -1 0  0.09375 -1 0  0.125 -1 0  0.15625 -1 0  0.1875 -1 0  0.21875 -1 0  0.25 -1 0  0.28125 -1 0  0.3125 -1 0  0.34375 -1 0  0.375 -1 0  0.40625 -1 0  0.4375 -1 0  0.46875 -1 0  0.5 -1 0  0.53125 -1 0  0.5625 -1 0  0.59375 -1 0  0.625 -1 0  0.65625 -1 0  0.6875 -1 0  0.71875 -1 0  0.75 -1 0  0.78125 -1 0  0.8125 -1 0  0.84375 -1 0  0.875 -1 0  0.90625 -1 0  0.9375 -1 0  0.96875 -1 0  1 -1 0  -1 -0.96875 0  -0.96875 -0.96875 0  -0.9375 -0.96875 0  -0.90625 -0.96875 0  -0.875 -0.96875 0  -0.84375 -0.96875 0  -0.8125 -0.96875 0  -0.78125 -0.96875 0  -0.75 -0.96875 0  -0.71875 -0.96875 0  -0.6875 -0.96875 0  -0.65625 -0.96875 0  -0.625 -0.96875 0  -0.59375 -0.96875 0  -0.5625 -0.96875 0  -0.53125 -0.96875 0  -0.5 -0.96875 0  -0.46875 -0.96875 0  -0.4375 -0.96875 0  -0.40625 -0.96875 0  -0.375 -0.96875 0  -0.34375 -0.96875 0  -0.3125 -0.96875 0  -0.28125 -0.96875 0  -0.25 -0.96875 0  -0.21875 -0.96875 0  -0.1875 -0.96875 0  -0.15625 -0.96875 0  -0.125 -0.96875 0  -0.09375 -0.96875 0  -0.0625 -0.96875 0  -0.03125 -0.96875 0  0 -0.96875 0  0.03125 -0.96875 0  0.0625 -0.96875 0  0.09375 -0.96875 0  0.125 -0.96875 0  0.15625 -0.96875 0  0.1875 -0.96875 0  0.21875 -0.96875 0  0.25 -0.96875 0  0.28125 -0.96875 0  0.3125 -0.96875 0  0.34375 -0.96875 0  0.375 -0.96875 0  0.40625 -0.96875 0  0.4375 -0.96875 0  0.46875 -0.96875 0  0.5 -0.96875 0  0.53125 -0.96875 0  0.5625 -0.96875 0  0.59375 -0.96875 0  0.625 -0.96875 0  0.65625 -0.96875 0  0.6875 -0.96875 0  0.71875 -0.96875 0  0.75 -0.96875 0  0.78125 -0.96875 0  0.8125 -0.96875 0  0.84375 -0.96875 0  0.875 -0.96875 0  0.90625 -0.96875 0  0.9375 -0.96875 0  0.96875 -0.96875 0  1 -0.96875 0  -1 -0.9375 0  -0.96875 -0.9375 0  -0.9375 -0.9375 0  -0.90625 -0.9375 0  -0.875 -0.9375 0  -0.84375 -0.9375 0  -0.8125 -0.9375 0  -0.78125 -0.9375 0  -0.75 -0.9375 0  -0.71875 -0.9375 0  -0.6875 -0.9375 0  -0.65625 -0.9375 0  -0.625 -0.9375 0  -0.59375 -0.9375 0  -0.5625 -0.9375 0  -0.53125 -0.9375 0  -0.5 -0.9375 0  -0.46875 -0.9375 0  -0.4375 -0.9375 0  -0.40625 -0.9375 0  -0.375 -0.9375 0  -0.34375 -0.9375 0  -0.3125 -0.9375 0  -0.28125 -0.9375 0  -0.25 -0.9375 0  -0.21875 -0.9375 0  -0.1875 -0.9375 0  -0.15625 -0.9375 0  -0.125 -0.9375 0  -0.09375 -0.9375 0  -0.0625 -0.9375 0  -0.03125 -0.9375 0  0 -0.9375 0  0.03125 -0.9375 0  0.0625 -0.9375 0  0.09375 -0.9375 0  0.125 -0.9375 0  0.15625 -0.9375 0  0.1875 -0.9375 0  0.21875 -0.9375 0  0.25 -0.9375 0  0.28125 -0.9375 0  0.3125 -0.9375 0  0.34375 -0.9375 0  0.375 -0.9375 0  0.40625 -0.9375 0  0.4375 -0.9375 0  0.46875 -0.9375 0  0.5 -0.9375 0  0.53125 -0.9375 0  0.5625 -0.9375 0  0.59375 -0.9375 0  0.625 -0.9375 0  0.65625 -0.9375 0  0.6875 -0.9375 0  0.71875 -0.9375 0  0.75 -0.9375 0  0.78125 -0.9375 0  0.8125 -0.9375 0  0.84375 -0.9375 0  0.875 -0.9375 0  0.90625 -0.9375 0  0.9375 -0.9375 0  0.96875 -0.9375 0  1 -0.9375 0  -1 -0.90625 0  -0.96875 -0.90625 0  -0.9375 -0.90625 0  -0.90625 -0.90625 0  -0.875 -0.90625 0  -0.84375 -0.90625 0  -0.8125 -0.90625 0  -0.78125 -0.90625 0  -0.75 -0.90625 0  -0.71875 -0.90625 0  -0.6875 -0.90625 0  -0.65625 -0.90625 0  -0.625 -0.90625 0  -0.59375 -0.90625 0  -0.5625 -0.90625 0  -0.53125 -0.90625 0  -0.5 -0.90625 0  -0.46875 -0.90625 0  -0.4375 -0.90625 0  -0.40625 -0.90625 0  -0.375 -0.90625 0  -0.34375 -0.90625 0  -0.3125 -0.90625 0  -0.28125 -0.90625 0  -0.25 -0.90625 0  -0.21875 -0.90625 0  -0.1875 -0.90625 0  -0.15625 -0.90625 0  -0.125 -0.90625 0  -0.09375 -0.90625 0  -0.0625 -0.90625 0  -0.03125 -0.90625 0  0 -0.90625 0  0.03125 -0.90625 0  0.0625 -0.90625 0  0.09375 -0.90625 0  0.125 -0.90625 0  0.15625 -0.90625 0  0.1875 -0.90625 0  0.21875 -0.90625 0  0.25 -0.90625 0  0.28125 -0.90625 0  0.3125 -0.90625 0  0.34375 -0.90625 0  0.375 -0.90625 0  0.40625 -0.90625 0  0.4375 -0.90625 0  0.46875 -0.90625 0  0.5 -0.90625 0  0.53125 -0.90625 0  0.5625 -0.90625 0  0.59375 -0.90625 0  0.625 -0.90625 0  0.65625 -0.90625 0  0.6875 -0.90625 0  0.71875 -0.90625 0  0.75 -0.90625 0  0.78125 -0.90625 0  0.8125 -0.90625 0  0.84375 -0.90625 0  0.875 -0.90625 0  0.90625 -0.90625 0  0.9375 -0.90625 0  0.96875 -0.90625 0  1 -0.90625 0  -1 -0.875 0  -0.96875 -0.875 0  -0.9375 -0.875 0  -0.90625 -0.875 0  -0.875 -0.875 0  -0.84375 -0.875 0  -0.8125 -0.875 0  -0.78125 -0.875 0  -0.75 -0.875 0  -0.71875 -0.875 0  -0.6875 -0.875 0  -0.65625 -0.875 0  -0.625 -0.875 0  -0.59375 -0.875 0  -0.5625 -0.875 0  -0.53125 -0.875 0  -0.5 -0.875 0  -0.46875 -0.875 0  -0.4375 -0.875 0  -0.40625 -0.875 0  -0.375 -0.875 0  -0.34375 -0.875 0  -0.3125 -0.875 0  -0.28125 -0.875 0  -0.25 -0.875 0  -0.21875 -0.875 0  -0.1875 -0.875 0  -0.15625 -0.875 0  -0.125 -0.875 0  -0.09375 -0.875 0  -0.0625 -0.875 0  -0.03125 -0.875 0  0 -0.875 0  0.03125 -0.875 0  0.0625 -0.875 0  0.09375 -0.875 0  0.125 -0.875 0  0.15625 -0.875 0  0.1875 -0.875 0  0.21875 -0.875 0  0.25 -0.875 0  0.28125 -0.875 0  0.3125 -0.875 0  0.34375 -0.875 0  0.375 -0.875 0  0.40625 -0.875 0  0.4375 -0.875 0  0.46875 -0.875 0  0.5 -0.875 0  0.53125 -0.875 0  0.5625 -0.875 0  0.59375 -0.875 0  0.625 -0.875 0  0.65625 -0.875 0  0.6875 -0.875 0  0.71875 -0.875 0  0.75 -0.875 0  0.78125 -0.875 0  0.8125 -0.875 0  0.84375 -0.875 0  0.875 -0.875 0  0.90625 -0.875 0  0.9375 -0.875 0  0.96875 -0.875 0  1 -0.875 0  -1 -0.84375 0  -0.96875 -0.84375 0  -0.9375 -0.84375 0  -0.90625 -0.84375 0  -0.875 -0.84375 0  -0.84375 -0.84375 0  -0.8125 -0.84375 0  -0.78125 -0.84375 0  -0.75 -0.84375 0  -0.71875 -0.84375 0  -0.6875 -0.84375 0  -0.65625 -0.84375 0  -0.625 -0.84375 0  -0.59375 -0.84375 0  -0.5625 -0.84375 0  -0.53125 -0.84375 0  -0.5 -0.84375 0  -0.46875 -0.84375 0  -0.4375 -0.84375 0  -0.40625 -0.84375 0  -0.375 -0.84375 0  -0.34375 -0.84375 0  -0.3125 -0.84375 0  -0.28125 -0.84375 0  -0.25 -0.84375 0  -0.21875 -0.84375 0  -0.1875 -0.84375 0  -0.15625 -0.84375 0  -0.125 -0.84375 0  -0.09375 -0.84375 0  -0.0625 -0.84375 0  -0.03125 -0.84375 0  0 -0.84375 0  0.03125 -0.84375 0  0.0625 -0.84375 0  0.09375 -0.84375 0  0.125 -0.84375 0  0.15625 -0.84375 0  0.1875 -0.84375 0  0.21875 -0.84375 0  0.25 -0.84375 0  0.28125 -0.84375 0  0.3125 -0.84375 0  0.34375 -0.84375 0  0.375 -0.84375 0  0.40625 -0.84375 0  0.4375 -0.84375 0  0.46875 -0.84375 0  0.5 -0.84375 0  0.53125 -0.84375 0  0.5625 -0.84375 0  0.59375 -0.84375 0  0.625 -0.84375 0  0.65625 -0.84375 0  0.6875 -0.84375 0  0.71875 -0.84375 0  0.75 -0.84375 0  0.78125 -0.84375 0  0.8125 -0.84375 0  0.84375 -0.84375 0  0.875 -0.84375 0  0.90625 -0.84375 0  0.9375 -0.84375 0  0.96875 -0.84375 0  1 -0.84375 0  -1 -0.8125 0  -0.96875 -0.8125 0  -0.9375 -0.8125 0  -0.90625 -0.8125 0  -0.875 -0.8125 0  -0.84375 -0.8125 0  -0.8125 -0.8125 0  -0.78125 -0.8125 0  -0.75 -0.8125 0  -0.71875 -0.8125 0  -0.6875 -0.8125 0  -0.65625 -0.8125 0  -0.625 -0.8125 0  -0.59375 -0.8125 0  -0.5625 -0.8125 0  -0.53125 -0.8125 0  -0.5 -0.8125 0  -0.46875 -0.8125 0  -0.4375 -0.8125 0  -0.40625 -0.8125 0  -0.375 -0.8125 0  -0.34375 -0.8125 0  -0.3125 -0.8125 0  -0.28125 -0.8125 0  -0.25 -0.8125 0  -0.21875 -0.8125 0  -0.1875 -0.8125 0  -0.15625 -0.8125 0  -0.125 -0.8125 0  -0.09375 -0.8125 0  -0.0625 -0.8125 0  -0.03125 -0.8125 0  0 -0.8125 0  0.03125 -0.8125 0  0.0625 -0.8125 0  0.09375 -0.8125 0  0.125 -0.8125 0  0.15625 -0.8125 0  0.1875 -0.8125 0  0.21875 -0.8125 0  0.25 -0.8125 0  0.28125 -0.8125 0  0.3125 -0.8125 0  0.34375 -0.8125 0  0.375 -0.8125 0  0.40625 -0.8125 0  0.4375 -0.8125 0  0.46875 -0.8125 0  0.5 -0.8125 0  0.53125 -0.8125 0  0.5625 -0.8125 0  0.59375 -0.8125 0  0.625 -0.8125 0  0.65625 -0.8125 0  0.6875 -0.8125 0  0.71875 -0.8125 0  0.75 -0.8125 0  0.78125 -0.8125 0  0.8125 -0.8125 0  0.84375 -0.8125 0  0.875 -0.8125 0  0.90625 -0.8125 0  0.9375 -0.8125 0  0.96875 -0.8125 0  1 -0.8125 0  -1 -0.78125 0  -0.96875 -0.78125 0  -0.9375 -0.78125 0  -0.90625 -0.78125 0  -0.875 -0.78125 0  -0.84375 -0.78125 0  -0.8125 -0.78125 0  -0.78125 -0.78125 0  -0.75 -0.78125 0  -0.71875 -0.78125 0  -0.6875 -0.78125 0  -0.65625 -0.78125 0  -0.625 -0.78125 0  -0.59375 -0.78125 0  -0.5625 -0.78125 0  -0.53125 -0.78125 0  -0.5 -0.78125 0  -0.46875 -0.78125 0  -0.4375 -0.78125 0  -0.40625 -0.78125 0  -0.375 -0.78125 0  -0.34375 -0.78125 0  -0.3125 -0.78125 0  -0.28125 -0.78125 0  -0.25 -0.78125 0  -0.21875 -0.78125 0  -0.1875 -0.78125 0  -0.15625 -0.78125 0  -0.125 -0.78125 0  -0.09375 -0.78125 0  -0.0625 -0.78125 0  -0.03125 -0.78125 0  0 -0.78125 0  0.03125 -0.78125 0  0.0625 -0.78125 0  0.09375 -0.78125 0  0.125 -0.78125 0  0.15625 -0.78125 0  0.1875 -0.78125 0  0.21875 -0.78125 0  0.25 -0.78125 0  0.28125 -0.78125 0  0.3125 -0.78125 0  0.34375 -0.78125 0  0.375 -0.78125 0  0.40625 -0.78125 0  0.4375 -0.78125 0  0.46875 -0.78125 0  0.5 -0.78125 0  0.53125 -0.78125 0  0.5625 -0.78125 0  0.59375 -0.78125 0  0.625 -0.78125 0  0.65625 -0.78125 0  0.6875 -0.78125 0  0.71875 -0.78125 0  0.75 -0.78125 0  0.78125 -0.78125 0  0.8125 -0.78125 0  0.84375 -0.78125 0  0.875 -0.78125 0  0.90625 -0.78125 0  0.9375 -0.78125 0  0.96875 -0.78125 0  1 -0.78125 0  -1 -0.75 0  -0.96875 -0.75 0  -0.9375 -0.75 0  -0.90625 -0.75 0  -0.875 -0.75 0  -0.84375 -0.75 0  -0.8125 -0.75 0  -0.78125 -0.75 0  -0.75 -0.75 0  -0.71875 -0.75 0  -0.6875 -0.75 0  -0.65625 -0.75 0  -0.625 -0.75 0  -0.59375 -0.75 0  -0.5625 -0.75 0  -0.53125 -0.75 0  -0.5 -0.75 0  -0.46875 -0.75 0  -0.4375 -0.75 0  -0.40625 -0.75
[...]
<PointData  Scalars="f_15"> 
<DataArray  type="Float64"  Name="f_15"  format="ascii">-4.9567613456115667e-01  -4.9091399559295512e-01  -4.7681058501825996e-01  -4.5390788899617290e-01  -4.2308604529084304e-01  -3.8552952007077701e-01  -3.4268158953824024e-01  -2.9618887563420127e-01  -2.4783806728057828e-01  -1.9948725892695537e-01  -1.5299454502291646e-01  -1.1014661449037962e-01  -7.2590089270313560e-02  -4.1768245564983694e-02  -1.8865549542896771e-02  -4.7621389682016247e-03  0.0000000000000000e+00  -4.7621389682016247e-03  -1.8865549542896799e-02  -4.1768245564983722e-02  -7.2590089270313615e-02  -1.1014661449037967e-01  -1.5299454502291659e-01  -1.9948725892695549e-01  -2.4783806728057833e-01  -2.9618887563420127e-01  -3.4268158953824013e-01  -3.8552952007077712e-01  -4.2308604529084304e-01  -4.5390788899617290e-01  -4.7681058501826001e-01  -4.9091399559295512e-01  -4.9567613456115667e-01  -4.9091399559295512e-01  -4.7681058501826001e-01  -4.5390788899617290e-01  -4.2308604529084304e-01  -3.8552952007077712e-01  -3.4268158953824013e-01  -2.9618887563420127e-01  -2.4783806728057833e-01  -1.9948725892695549e-01  -1.5299454502291659e-01  -1.1014661449037967e-01  -7.2590089270313615e-02  -4.1768245564983722e-02  -1.8865549542896799e-02  -4.7621389682016247e-03  0.0000000000000000e+00  -4.7621389682016247e-03  -1.8865549542896771e-02  -4.1768245564983694e-02  -7.2590089270313560e-02  -1.1014661449037962e-01  -1.5299454502291646e-01  -1.9948725892695537e-01  -2.4783806728057828e-01  -2.9618887563420127e-01  -3.4268158953824024e-01  -3.8552952007077701e-01  -4.2308604529084304e-01  -4.5390788899617290e-01  -4.7681058501825996e-01  -4.9091399559295512e-01  -4.9567613456115667e-01  -4.9091399559295512e-01  -4.3028494007992646e-01  -3.0349161804097596e-01  -1.6647525023052798e-01  -2.3252559353956651e-02  1.2229255897228970e-01  2.6738547698514742e-01  4.0947642702772158e-01  5.4603663874943253e-01  6.7453532388170157e-01  7.9248622736988261e-01  8.9751974830713399e-01  9.8746309106123553e-01  1.0604190670804041e+00  1.1148377531734637e+00  1.1495766169757138e+00  1.1639461281799177e+00  1.1577384251324900e+00  1.1312378909665561e+00  1.0852130177986614e+00  1.0208902274397247e+00  9.3991079189342175e-01  8.4427314446395185e-01  7.3626314871161436e-01  6.1837570388607599e-01  4.9323103182384909e-01  3.6348939326156138e-01  2.3176766222965237e-01  1.0056114774641722e-01  -2.7826457061071713e-02  -1.5134249020369411e-01  -2.6823219765077722e-01  -3.7707178233799282e-01  -4.7678692203401657e-01  -5.6665679089296461e-01  -6.4630411203914806e-01  -7.1567252126238845e-01  -7.7499281475892468e-01  -8.2474030457809566e-01  -8.6558551907228087e-01  -8.9834092537660060e-01  -9.2390602594780158e-01  -9.4321337602289379e-01  -9.5717747573762568e-01  -9.6664847507706153e-01  -9.7237190527862061e-01  -9.7495560652385771e-01  -9.7484433115970914e-01  -9.7230258244426893e-01  -9.6740571634558381e-01  -9.6003961847362929e-01  -9.4990894253688041e-01  -9.3655433758464945e-01  -9.1937895469496644e-01  -8.9768518761776261e-01  -8.7072281526641648e-01  -8.3775128301451174e-01  -7.9812258664112745e-01  -7.5138921144013826e-01  -6.9732136725763727e-01  -6.3776088424539779e-01  -5.6767972806329003e-01  -5.1665463848961368e-01  -4.1978872096111763e-01  -4.9091399559295512e-01  -4.7681058501825996e-01  -4.9056183584424379e-01  -3.7234170370961334e-01  -2.7225091432656429e-01  -1.6607652139632947e-01  -5.8764447884005408e-02  4.7961493720320963e-02  1.5224336445837566e-01  2.5223829011246657e-01  3.4612233554326405e-01  4.3212785687896615e-01  5.0859260090877778e-01  5.7401258629768870e-01  6.2709304012601863e-01  6.6679351490682337e-01  6.9236493793229548e-01  7.0337676299370333e-01  6.9973346063114972e-01  6.8167962095951684e-01  6.4979383716701444e-01  6.0497147965939302e-01  5.4839729221932865e-01  4.8150864045366198e-01  4.0595094013693167e-01  3.2352666705245003e-01  2.3613993413911299e-01  1.4573845307552266e-01  5.4255060207131812e-02  -3.6449191532064058e-02  -1.2463826930842321e-01  -2.0874885739339566e-01  -2.8743081286022332e-01  -3.5957894748842972e-01  -4.2435511268810383e-01  -4.8119985077035260e-01  -5.2983343438651520e-01  -5.7024634244468619e-01  -6.0267986696455833e-01  -6.2759765349512431e-01  -6.4564960355399936e-01  -6.5762951216095733e-01  -6.6442839337452531e-01  -6.6698522836197249e-01  -6.6623732004176794e-01  -6.6307208799217587e-01  -6.5828247752662994e-01  -6.5252766466003287e-01  -6.4630095984107006e-01  -6.3990619403523274e-01  -6.3344402590260251e-01  -6.2680891827090679e-01  -6.1969764233656732e-01  -6.1162954970387540e-01  -6.0197912135221099e-01  -5.9002100675552149e-01  -5.7498861005268076e-01  -5.5614816141150081e-01  -5.3289497076659764e-01  -5.0487459187842887e-01  -4.7200064402388836e-01  -4.3653023283383335e-01  -3.9187492847816646e-01  -3.7740777905950146e-01  -2.7602704663757710e-01  -4.7681058501825996e-01  -4.5390788899617290e-01  -5.5496252435071602e-01  -4.0630015239791650e-01  -3.0562352234053108e-01  -1.9594437325236400e-01  -8.7973967056685504e-02  1.8201875274357772e-02  1.2111419051039911e-01  2.1926868245643963e-01  3.1114029893847267e-01  3.9522215789810322e-01  4.7007757928205818e-01  5.3439260948112555e-01  5.8702576013062324e-01  6.2705244116834968e-01  6.5380197397753248e-01  6.6688564550052831e-01  6.6621457490531877e-01  6.5200677002998164e-01  6.2478309738178373e-01  5.8535247127385437e-01  5.3478691763485420e-01  4.7438768879978571e-01  4.0564386283365006e-01  3.3018523327464483e-01  2.4973138347646484e-01  1.6603903199914818e-01  8.0849664043731284e-02  -4.1605746720157757e-03  -8.7426926717252079e-02  -1.6753642533175231e-01  -2.4326133199728608e-01  -3.1358461136132210e-01  -3.7771674707861136e-01  -4.3510357887760953e-01  -4.8542515002805192e-01  -5.2858593513924923e-01  -5.6469707051967677e-01  -5.9405157356750060e-01  -6.1709369394183300e-01  -6.3438383364591078e-01  -6.4656049533255822e-01  -6.5430092151831443e-01  -6.5828199300113910e-01  -6.5914301916373286e-01  -6.5745185353017355e-01  -6.5367575845217984e-01  -6.4815815158141277e-01  -6.4110232105793064e-01  -6.3256286531159334e-01  -6.2244559736102756e-01  -6.1051638122046981e-01  -5.9641942012110372e-01  -5.7970543304029110e-01  -5.5987048453339561e-01  -5.3640655634546430e-01  -5.0886613072470988e-01  -4.7694658251639860e-01  -4.4059207092981639e-01  -3.9994852361377287e-01  -3.5774201204515010e-01  -3.0504586294812186e-01  -2.9087559799183266e-01  -1.4880495158581727e-01  -4.5390788899617290e-01  -4.2308604529084304e-01  -6.1939829092035525e-01  -4.4548671487969072e-01  -3.5317713761957664e-01  -2.4801903288215699e-01  -1.4744242831573784e-01  -4.9506218319983385e-02  4.4596825961627749e-02  1.3377133347971318e-01  2.1685232753219963e-01  2.9266656383107481e-01  3.6008716947999486e-01  4.1808207633907729e-01  4.6575725562526066e-01  5.0239408559142973e-01  5.2747983025129508e-01  5.4073041364714680e-01  5.4210478021574571e-01  5.3181054520920312e-01  5.1030081117021187e-01  4.7826250900719147e-01  4.3659675867272191e-01  3.8639218809684733e-01  3.2889225569063207e-01  2.6545795285770457e-01  1.9752729573648828e-01  1.2657320263061383e-01  5.4061296761274850e-02  -1.8590773877950179e-02  -9.0051078942020163e-02  -1.5910687093711229e-01  -2.2469266639476826e-01  -2.8591204383030450e-01  -3.4205252578902046e-01  -3.9259320479236093e-01  -4.3720502064833044e-01  -4.7574393524128505e-01  -5.0823745585988001e-01  -5.3486526530172740e-01  -5.5593486208512621e-01  -5.7185335602746246e-01  -5.8309661882100872e-01  -5.9017714173312452e-01  -5.9361190249583839e-01  -5.9389162712476307e-01  -5.9145267713263461e-01  -5.8665279103788748e-01  -5.7975171401682557e-01  -5.7089768419206888e-01  -5.6012052933328516e-01  -5.4733204939206392e-01  -5.3233417293094820e-01  -5.1483538263935036e-01  -4.9447580367144889e-01  -4.7086152550250931e-01  -4.4360885094769947e-01  -4.1239972063504771e-01  -3.7705227246623024e-01  -3.3759789896522790e-01  -2.9416830390556759e-01  -2.4965279461338152e-01  -1.9257262606773048e-01  -1.8162079943200693e-01  -3.5953988054531704e-03  -4.2308604529084304e-01  -3.8552952007077701e-01  -6.7943113925819221e-01  -4.8190054267731014e-01  -3.9712259541219302e-01  -2.9433743901420806e-01  -1.9854208517975519e-01  -1.0596287330220412e-01  -1.7672095766560134e-02  6.5552202970552378e-02  1.4282179435726455e-01  2.1321637846794361e-01  2.7583988073401211e-01  3.2986602296518946e-01  3.7457771410591012e-01  4.0940030551140116e-01  4.3392850809864986e-01  4.4794640250105588e-01  4.5144027877048176e-01  4.4460396709686967e-01  4.2783680407303415e-01  4.0173433848249984e-01  3.6707240805021257e-01  3.2478518901771070e-01  2.7593827465765919e-01  2.2169777112108896e-01  1.6329673325429661e-01  1.0200015448495689e-01  3.9069908960740876e-02  -2.4269134071955866e-02  -8.6860559730475101e-02  -1.4764436535974407e-01  -2.0568048219862037e-01  -2.6016712801377073e-01  -3.1045348043410315e-01  -3.5604634772641952e-01  -3.9661082643979823e-01  -4.3196505994821893e-01  -4.6206955451126991e-01  -4.8701157386619359e-01  -5.0698546330821082e-01  -5.2226972452499498e-01  -5.3320194637296148e-01  -5.4015258183754211e-01  -5.4349879185310646e-01  -5.4359935102133083e-01  -5.4077178470685305e-01  -5.3527262463687264e-01  -5.2728178597940489e-01  -5.1689173943729749e-01  -5.0410224044910912e-01  -4.8882105447541707e-01  -4.7087122016446331e-01  -4.5000508363684166e-01  -4.2592550454975636e-01  -3.9831438966800209e-01  -3.6686887119417888e-01  -3.3134528283442771e-01  -2.9161346264602322e-01  -2.4770816139487173e-01  -1.9965443424439630e-01  -1.5042174371653411e-01  -8.6078216782366310e-02  -7.5013752742608492e-02  1.4024108729706922e-01  -3.8552952007077701e-01  -3.4268158953824024e-01  -7.3327082513178710e-01  -5.1417359086717618e-01  -4.3780180845941202e-01  -3.3781648600239644e-01  -2.4677575677953908e-01  -1.5923989845745698e-01  -7.6273572807992865e-02  1.5826454159187599e-03  7.3656531259701397e-02  1.3923259539960992e-01  1.9760543406571116e-01  2.4812102925331014e-01  2.9021183217488883e-01  3.2342605962908372e-01  3.4745103939881100e-01  3.6213060075311909e-01  3.6747619303347639e-01  3.6367178419852358e-01  3.5107245853726576e-01  3.3019710009495212e-01  3.0171544536756628e-01  2.6643024459372522e-01  2.2525517503631309e-01  1.7918952905889238e-01  1.2929056985519058e-01  7.6644711443584340e-02  2.2338526584829436e-02  -3.2569292543687053e-02  -8.7074070580705501e-02  -1.4024845065422065e-01  -1.9126210181323561e-01  -2.3939722079445774e-01  -2.8405936721555453e-01  -3.2478341243621683e-01  -3.6123449117082135e-01  -3.9320415086670285e-01  -4.2060193435203685e-01  -4.4344295903112452e-01  -4.6183201985478900e-01  -4.7594506617248866e-01  -4.8600877277049959e-01  -4.9227921233297878e-01  -4.9502042881868324e-01  -4.9448395322047900e-01  -4.9089001493468215e-01  -4.8441140398596955e-01  -4.7516059360760454e-01  -4.6318091260540684e-01  -4.4844217221478916e-01  -4.3084131753423266e-01  -4.1020829299172812e-01  -3.8631747794546989e-01  -3.5890466551904537e-01  -3.2768970343455228e-01  -2.9240441296267766e-01  -2.5282547930015786e-01  -2.0881387559089709e-01  -1.6034525034172437e-01  -1.0728662530654681e-01  -5.2657799842433184e-02  1.9783234419156897e-02  3.2155212110378216e-02  2.8421586977757113e-01  -3.4268158953824024e-01  -2.9618887563420127e-01  -7.8032913277034321e-01  -5.4163005936295894e-01  -4.7431791992451544e-01  -3.7739254671384015e-01  -2.9093454342806047e-01  -2.0800522429247395e-01  -1.2975391572904332e-01  -5.6558685835474042e-02  1.1064826752862578e-02  7.2556804341386671e-02  1.2736086451433259e-01  1.7495969108100728e-01  2.1490552818113048e-01  2.4684543416024773e-01  2.7054140038750080e-01  2.8588525520339347e-01  2.9290830349321584e-01  2.9178566512443266e-01  2.8283541082593883e-01  2.6651270204465832e-01  2.4339930884357924e-01  2.1418900123166307e-01  1.7966945573777829e-01  1.4070141219715251e-01  9.8195910183354815e-02  5.3090473370244709e-02  6.3251329594032311e-03  -4.1180835215814011e-02  -8.8550636562556823e-02  -1.3496939960465082e-01  -1.7970069495968541e-01  -2.2209961313146515e-01  -2.6162203324175998e-01  -2.9782986118462490e-01  -3.3039218157140754e-01  -3.5908241404977859e-01  -3.8377173157285166e-01  -4.0441911215062787e-01  -4.2105854655388397e-01  -4.3378398810181051e-01  -4.4273274664542833e-01  -4.4806803847044202e-01  -4.4996146621255501e-01  -4.4857616119998989e-01  -4.4405134248920930e-01  -4.3648893565175778e-01  -4.2594290164562965e-01  -4.1241175906722582e-01  -3.9583477551131208e-01  -3.7609211232457029e-01  -3.5300917338134363e-01  -3.2636521308454247e-01  -2.9590618964637427e-01  -2.6136158092313616e-01  -2.2246466519653843e-01  -1.7897543614620454e-01  -1.3070778540227540e-01  -7.7544053394887041e-02  -1.9174289537080454e-02  4.1342673821858633e-02  1.2240335728243217e-01  1.3706121640877605e-01  4.2499659292901942e-01  -2.9618887563420127e-01  -2.4783806728057828e-01  -8.2066660212071163e-01  -5.6423061651897854e-01  -5.0638934673159053e-01  -4.1277977141931288e-01  -3.3083103227172667e-01  -2.5222302604193747e-01  -1.7825302533409965e-01  -1.0919652305151309e-01  -4.5462638125997747e-02  1.2502272865419764e-02  6.4254989958934736e-02  1.0938462583155009e-01  1.4753807365612498e-01  1.7844120529093210e-01  2.0191579485698644e-01  2.1789205017464292e-01  2.2641678681121044e-01  2.2765714696689796e-01  2.2190004410475547e-01  2.0954741575304281e-01  1.9110769093272992e-01  1.6718378980769522e-01  1.3845827135616967e-01  1.0567614454553756e-01  6.9626102541877691e-02  3.1120822629545370e-02  -9.0228722448529083e-03  -5.0003328555135340e-02  -9.1052128236050703e-02  -1.3145031755075504e-01  -1.7054225169534284e-01  -2.0774662876603978e-01  -2.4256440871342455e-01  -2.7458340805944065e-01  -3.0347954652934506e-01  -3.2901477606955964e-01  -3.5103193295865304e-01  -3.6944677388485786e-01  -3.8423765791683279e-01  -3.9543330890335854e-01  -4.0309927437004806e-01  -4.0732361467420486e-01  -4.0820250836391975e-01  -4.0582631891211624e-01  -4.0026678083470779e-01  -3.9156580108897554e-01  -3.7972641535285662e-01  -3.6470626770733483e-01  -3.4641398746291524e-01  -3.2470864245514081e-01  -2.9940243325981875e-01  -2.7026655107334774e-01  -2.3704007971670493e-01  -1.9944151511210009e-01  -1.5718225392137056e-01  -1.0998115130780360e-01  -5.7582047960072366e-02  2.4327156154674081e-04  6.3985121518209884e-02  1.3055755566424021e-01  2.2033974695092390e-01  2.3792623150231626e-01  5.6014629362516077e-01  -2.4783806728057828e-01  -1.9948725892695537e-01  -8.5471209259021230e-01  -5.8233781969485587e-01  -5.3409895110326755e-01  -4.4397953408956647e-01  -3.6646236039332436e-01  -2.9194423913594431e-01  -2.2190976922861114e-01  -1.5657587119047242e-01  -9.6284245563747345e-02  -4.1402052428749211e-02  7.7109795677040476e-03  5.0725054382642111e-02  8.7360615144365258e-02  1.1740551381184329e-01  1.4072875925803291e-01  1.5729080218343611e-01  1.6715019571955678e-01  1.7046669144297594e-01  1.6750073813724792e-01  1.5860962134324591e-01  1.4424040004466268e-01  1.2492006267412532e-01  1.0124324056790247e-01  7.3858056867539629e-02  4.3450589219364920e-02  1.0728598362412653e-02  -2.3594939897528051e-02  -5.8817851923581202e-02  -9.4263814439673257e-02  -1.2929589546328038e-01  -1.6332816197987579e-01  -1.9583499044339109e-01  -2.2635781024450116e-01  -2.5450913759373911e-01  -2.7997381765843959e-01  -3.0250756027292969e-01  -3.2193288507182793e-01  -3.3813276558194366e-01  -3.5104225397079408e-01  -3.6063853670284557e-01  -3.6692981679717207e-01  -3.6994356911040338e-01  -3.6971460126273969e-01  -3.6627349043898277e-01  -3.5963580966374348e-01  -3.4979264283104494e-01  -3.3670272077351193e-01  -3.2028654831639508e-01  -3.0042270906877899e-01  -2.7694653890662851e-01  -2.4965113624928975e-01  -2.1829067009797276e-01  -1.8258567004242479e-01  -1.4222990201060010e-01  -9.6898061198448113e-02  -4.6253512183814322e-02  1.0041699683639643e-02  7.2332509112117152e-02  1.4128414708240208e-01  2.1379967210651393e-01  3.1204143634933257e-01  3.3292432119583332e-01  6.8714504417802647e-01  -1.9948725892695537e-01  -1.5299454502291646e-01  -8.8309510896578358e-01  -5.9655842851018648e-01  -5.5776471377190884e-01  -4.7119453440422698e-01  -3.9798053823552448e-01  -3.2732785558969302e-01  -2.6092732566709459e-01  -1.9896701300301617e-01  -1.4174946798274277e-01  -8.9588687100131195e-02  -4.2784206575627363e-02  -1.6050101761966265e-03  3.3725825661010178e-02  6.3044377818398945e-02  8.6256647482110205e-02  1.0334661786723810e-01  1.1438150673836417e-01  1.1951411005206497e-01  1.1898229931406556e-01  1.1310572729834192e-01  1.0227997547641225e-01  8.6968365817996815e-02  6.7691821696392249e-02  4.5017132899219908e-02  1.9544117783755029e-02  -8.1078803458782076e-03  -3.7313631810571478e-02  -6.7455345454718069e-02  -9.7935188007708007e-02  -1.2818659625032092e-01  -1.5768400433778781e-01  -1.8595069113555099e-01  -2.1256452776091952e-01  -2.3716147986323888e-01  -2.5943682632232440e-01  -2.7914411321844618e-01  -2.9609198217818522e-01  -3.1013904748285881e-01  -3.2118711291806767e-01  -3.2917301679263095e-01  -3.3405950538153351e-01  -3.3582548611316299e-01  -3.3445610974896434e-01  -3.2993303455512596e-01  -3.2222530006915684e-01  -3.1128111610898623e-01  -2.9702090388365032e-01  -2.7933178550933907e-01  -2.5806371727213040e-01  -2.3302729610557518e-01  -2.0399324125033430e-01  -1.7069334803846073e-01  -1.3282265417959824e-01  -9.0042309495779391e-02  -4.1982482988612818e-02  1.1755415337249208e-02  7.1594576193486456e-02  1.3799517078754009e-01  2.1178564197230448e-01  2.8987791114690881e-01  3.9598330812368410e-01  4.2028377943049572e-01  8.0351517113294812e-01  -1.5299454502291646e-01  -1.1014661449037962e-01  -9.0653149160285917e-01  -6.0762565552396020e-01  -5.7783905356357856e-01  -4.9475331596950439e-01  -4.2564171644884935e-01  -3.5860976136890010e-01  -2.9555717490845218e-01  -2.3666099593559906e-01  -1.8220321857271821e-01  -1.3246299008436035e-01  -8.7696807809717822e-02  -4.8128233540554094e-02  -1.3937088992774486e-02  1.4750182368384771e-02  3.7868481953410006e-02  5.5420069348788903e-02  6.7478434303831533e-02  7.4189919550992467e-02  7.5773071108997433e-02  7.2515772444159257e-02  6.4770294877762605e-02  5.2946471857307324e-02  3.7503258026140809e-02  1.8939003967185557e-02  -2.2192025653483805e-03  -2.5426725729292280e-02  -5.0132718334582639e-02  -7.5791189794202199e-02  -1.0187144041753915e-01  -1.2786750304465011e-01  -1.5330629685385930e-01  -1.7775423668877247e-01  -2.0082211702328390e-01  -2.2216814692344539e-01  -2.4149909381177001e-01  -2.5856955419774685e-01  -2.7317944777907077e-01  -2.8516988775253627e-01  -2.9441763709445867e-01  -3.0082841114150272e-01  -3.0432931139949815e-01  -3.0486071436423234e-01  -3.0236792464083589e-01  -2.9679292552797937e-01  -2.8806651293965663e-01  -2.7610109397878646e-01  -2.6078435977174602e-01  -2.4197400884999953e-01  -2.1949360553269448e-01  -1.9312959167810978e-01  -1.6262935520902255e-01  -1.2770017004480580e-01  -8.8008670713595527e-02  -4.3180413643382702e-02  7.2011424085108838e-03  6.3596821067159262e-02  1.2651221163022805e-01  1.9651537270558520e-01  2.7458109447766504e-01  3.5765228429468648e-01  4.7071811400746655e-01  4.9833314677699503e-01  9.0689719253688295e-01  -1.1014661449037962e-01  -7.2590089270313560e-02  -9.2573968049244204e-01  -6.1630798118398467e-01  -5.9482972136032941e-01  -5.1504545213541508e-01  -4.4975657741299735e-01  -3.8606686606322904e-01  -3.2607462905530865e-01  -2.6995429671934962e-01  -2.1797769356440727e-01  -1.7040062755590918e-01  -1.2744816108557980e-01  -8.9309326453181126e-02  -5.6130338417191006e-02  -2.8008151701889410e-02  -4.9850110884165381e-03  1.2955711411137097e-02  2.5892119244049178e-02  3.3964718359689623e-02  3.7375571592047095e-02  3.6385726630817544e-02  3.1310971968174076e-02  2.2516096131491629e-02  1.0407836329943965e-02  -4.5732142974716176e-03  -2.1961460975234735e-02  -4.127560570242697