<?xml version="1.0"?>
<VTKFile type="UnstructuredGrid"  version="0.1"  >
<UnstructuredGrid>
<Piece  NumberOfPoints="4225" NumberOfCells="8192">
<Points>
<DataArray  type="Float64"  NumberOfComponents="3"  format="ascii">-1 -1 0  -0.96875 -1 0  -0.9375 -1 0  -0.90625 -1 0  -0.875 -1 0  -0.84375 -1 0  -0.8125 -1 0  -0.78125 -1 0  -0.75 -1 0  -0.71875 -1 0  -0.6875 -1 0  -0.65625 -1 0  -0.625 -1 0  -0.59375 -1 0  -0.5625 -1 0  -0.53125 -1 0  -0.5 -1 0  -0.46875 -1 0  -0.4375 -1 0  -0.40625 -1 0  -0.375 -1 0  -0.34375 -1 0  -0.3125 -1 0  -0.28125 -1 0  -0.25 -1 0  -0.21875 -1 0  -0.1875 -1 0  -0.15625 -1 0  -0.125 -1 0  -0.09375 -1 0  -0.0625 -1 0  -0.03125 -1 0  0 -1 0  0.03125 -1 0  0.0625 -1 0  0.09375 -1 0  0.125 -1 0  0.15625 -1 0  0.1875 -1 0  0.21875 -1 0  0.25 -1 0  0.28125 -1 0  0.3125 -1 0  0.34375 -1 0  0.375 -1 0  0.40625 -1 0  0.4375 -1 0  0.46875 -1 0  0.5 -1 0  0.53125 -1 0  0.5625 -1 0  0.59375 -1 0  0.625 -1 0  0.65625 -1 0  0.6875 -1 0  0.71875 -1 0  0.75 -1 0  0.78125 -1 0  0.8125 -1 0  0.84375 -1 0  0.875 -1 0  0.90625 -1 0  0.9375 -1 0  0.96875 -1 0  1 -1 0  -1 -0.96875 0  -0.96875 -0.96875 0  -0.9375 -0.96875 0  -0.90625 -0.96875 0  -0.875 -0.96875 0  -0.84375 -0.96875 0  -0.8125 -0.96875 0  -0.78125 -0.96875 0  -0.75 -0.96875 0  -0.71875 -0.96875 0  -0.6875 -0.96875 0  -0.65625 -0.96875 0  -0.625 -0.96875 0  -0.59375 -0.96875 0  -0.5625 -0.96875 0  -0.53125 -0.96875 0  -0.5 -0.96875 0  -0.46875 -0.96875 0  -0.4375 -0.96875 0  -0.40625 -0.96875 0  -0.375 -0.96875 0  -0.34375 -0.96875 0  -0.3125 -0.96875 0  -0.28125 -0.96875 0  -0.25 -0.96875 0  -0.21875 -0.96875 0  -0.1875 -0.96875 0  -0.15625 -0.96875 0  -0.125 -0.96875 0  -0.09375 -0.96875 0  -0.0625 -0.96875 0  -0.03125 -0.96875 0  0 -0.96875 0  0.03125 -0.96875 0  0.0625 -0.96875 0  0.09375 -0.96875 0  0.125 -0.96875 0  0.15625 -0.96875 0  0.1875 -0.96875 0  0.21875 -0.96875 0  0.25 -0.96875 0  0.28125 -0.96875 0  0.3125 -0.96875 0  0.34375 -0.96875 0  0.375 -0.96875 0  0.40625 -0.96875 0  0.4375 -0.96875 0  0.46875 -0.96875 0  0.5 -0.96875 0  0.53125 -0.96875 0  0.5625 -0.96875 0  0.59375 -0.96875 0  0.625 -0.96875 0  0.65625 -0.96875 0  0.6875 -0.96875 0  0.71875 -0.96875 0  0.75 -0.96875 0  0.78125 -0.96875 0  0.8125 -0.96875 0  0.84375 -0.96875 0  0.875 -0.96875 0  0.90625 -0.96875 0  0.9375 -0.96875 0  0.96875 -0.96875 0  1 -0.96875 0  -1 -0.9375 0  -0.96875 -0.9375 0  -0.9375 -0.9375 0  -0.90625 -0.9375 0  -0.875 -0.9375 0  -0.84375 -0.9375 0  -0.8125 -0.9375 0  -0.78125 -0.9375 0  -0.75 -0.9375 0  -0.71875 -0.9375 0  -0.6875 -0.9375 0  -0.65625 -0.9375 0  -0.625 -0.9375 0  -0.59375 -0.9375 0  -0.5625 -0.9375 0  -0.53125 -0.9375 0  -0.5 -0.9375 0  -0.46875 -0.9375 0  -0.4375 -0.9375 0  -0.40625 -0.9375 0  -0.375 -0.9375 0  -0.34375 -0.9375 0  -0.3125 -0.9375 0  -0.28125 -0.9375 0  -0.25 -0.9375 0  -0.21875 -0.9375 0  -0.1875 -0.9375 0  -0.15625 -0.9375 0  -0.125 -0.9375 0  -0.09375 -0.9375 0  -0.0625 -0.9375 0  -0.03125 -0.9375 0  0 -0.9375 0  0.03125 -0.9375 0  0.0625 -0.9375 0  0.09375 -0.9375 0  0.125 -0.9375 0  0.15625 -0.9375 0  0.1875 -0.9375 0  0.21875 -0.9375 0  0.25 -0.9375 0  0.28125 -0.9375 0  0.3125 -0.9375 0  0.34375 -0.9375 0  0.375 -0.9375 0  0.40625 -0.9375 0  0.4375 -0.9375 0  0.46875 -0.9375 0  0.5 -0.9375 0  0.53125 -0.9375 0  0.5625 -0.9375 0  0.59375 -0.9375 0  0.625 -0.9375 0  0.65625 -0.9375 0  0.6875 -0.9375 0  0.71875 -0.9375 0  0.75 -0.9375 0  0.78125 -0.9375 0  0.8125 -0.9375 0  0.84375 -0.9375 0  0.875 -0.9375 0  0.90625 -0.9375 0  0.9375 -0.9375 0  0.96875 -0.9375 0  1 -0.9375 0  -1 -0.90625 0  -0.96875 -0.90625 0  -0.9375 -0.90625 0  -0.90625 -0.90625 0  -0.875 -0.90625 0  -0.84375 -0.90625 0  -0.8125 -0.90625 0  -0.78125 -0.90625 0  -0.75 -0.90625 0  -0.71875 -0.90625 0  -0.6875 -0.90625 0  -0.65625 -0.90625 0  -0.625 -0.90625 0  -0.59375 -0.90625 0  -0.5625 -0.90625 0  -0.53125 -0.90625 0  -0.5 -0.90625 0  -0.46875 -0.90625 0  -0.4375 -0.90625 0  -0.40625 -0.90625 0  -0.375 -0.90625 0  -0.34375 -0.90625 0  -0.3125 -0.90625 0  -0.28125 -0.90625 0  -0.25 -0.90625 0  -0.21875 -0.90625 0  -0.1875 -0.90625 0  -0.15625 -0.90625 0  -0.125 -0.90625 0  -0.09375 -0.90625 0  -0.0625 -0.90625 0  -0.03125 -0.90625 0  0 -0.90625 0  0.03125 -0.90625 0  0.0625 -0.90625 0  0.09375 -0.90625 0  0.125 -0.90625 0  0.15625 -0.90625 0  0.1875 -0.90625 0  0.21875 -0.90625 0  0.25 -0.90625 0  0.28125 -0.90625 0  0.3125 -0.90625 0  0.34375 -0.90625 0  0.375 -0.90625 0  0.40625 -0.90625 0  0.4375 -0.90625 0  0.46875 -0.90625 0  0.5 -0.90625 0  0.53125 -0.90625 0  0.5625 -0.90625 0  0.59375 -0.90625 0  0.625 -0.90625 0  0.65625 -0.90625 0  0.6875 -0.90625 0  0.71875 -0.90625 0  0.75 -0.90625 0  0.78125 -0.90625 0  0.8125 -0.90625 0  0.84375 -0.90625 0  0.875 -0.90625 0  0.90625 -0.90625 0  0.9375 -0.90625 0  0.96875 -0.90625 0  1 -0.90625 0  -1 -0.875 0  -0.96875 -0.875 0  -0.9375 -0.875 0  -0.90625 -0.875 0  -0.875 -0.875 0  -0.84375 -0.875 0  -0.8125 -0.875 0  -0.78125 -0.875 0  -0.75 -0.875 0  -0.71875 -0.875 0  -0.6875 -0.875 0  -0.65625 -0.875 0  -0.625 -0.875 0  -0.59375 -0.875 0  -0.5625 -0.875 0  -0.53125 -0.875 0  -0.5 -0.875 0  -0.46875 -0.875 0  -0.4375 -0.875 0  -0.40625 -0.875 0  -0.375 -0.875 0  -0.34375 -0.875 0  -0.3125 -0.875 0  -0.28125 -0.875 0  -0.25 -0.875 0  -0.21875 -0.875 0  -0.1875 -0.875 0  -0.15625 -0.875 0  -0.125 -0.875 0  -0.09375 -0.875 0  -0.0625 -0.875 0  -0.03125 -0.875 0  0 -0.875 0  0.03125 -0.875 0  0.0625 -0.875 0  0.09375 -0.875 0  0.125 -0.875 0  0.15625 -0.875 0  0.1875 -0.875 0  0.21875 -0.875 0  0.25 -0.875 0  0.28125 -0.875 0  0.3125 -0.875 0  0.34375 -0.875 0  0.375 -0.875 0  0.40625 -0.875 0  0.4375 -0.875 0  0.46875 -0.875 0  0.5 -0.875 0  0.53125 -0.875 0  0.5625 -0.875 0  0.59375 -0.875 0  0.625 -0.875 0  0.65625 -0.875 0  0.6875 -0.875 0  0.71875 -0.875 0  0.75 -0.875 0  0.78125 -0.875 0  0.8125 -0.875 0  0.84375 -0.875 0  0.875 -0.875 0  0.90625 -0.875 0  0.9375 -0.875 0  0.96875 -0.875 0  1 -0.875 0  -1 -0.84375 0  -0.96875 -0.84375 0  -0.9375 -0.84375 0  -0.90625 -0.84375 0  -0.875 -0.84375 0  -0.84375 -0.84375 0  -0.8125 -0.84375 0  -0.78125 -0.84375 0  -0.75 -0.84375 0  -0.71875 -0.84375 0  -0.6875 -0.84375 0  -0.65625 -0.84375 0  -0.625 -0.84375 0  -0.59375 -0.84375 0  -0.5625 -0.84375 0  -0.53125 -0.84375 0  -0.5 -0.84375 0  -0.46875 -0.84375 0  -0.4375 -0.84375 0  -0.40625 -0.84375 0  -0.375 -0.84375 0  -0.34375 -0.84375 0  -0.3125 -0.84375 0  -0.28125 -0.84375 0  -0.25 -0.84375 0  -0.21875 -0.84375 0  -0.1875 -0.84375 0  -0.15625 -0.84375 0  -0.125 -0.84375 0  -0.09375 -0.84375 0  -0.0625 -0.84375 0  -0.03125 -0.84375 0  0 -0.84375 0  0.03125 -0.84375 0  0.0625 -0.84375 0  0.09375 -0.84375 0  0.125 -0.84375 0  0.15625 -0.84375 0  0.1875 -0.84375 0  0.21875 -0.84375 0  0.25 -0.84375 0  0.28125 -0.84375 0  0.3125 -0.84375 0  0.34375 -0.84375 0  0.375 -0.84375 0  0.40625 -0.84375 0  0.4375 -0.84375 0  0.46875 -0.84375 0  0.5 -0.84375 0  0.53125 -0.84375 0  0.5625 -0.84375 0  0.59375 -0.84375 0  0.625 -0.84375 0  0.65625 -0.84375 0  0.6875 -0.84375 0  0.71875 -0.84375 0  0.75 -0.84375 0  0.78125 -0.84375 0  0.8125 -0.84375 0  0.84375 -0.84375 0  0.875 -0.84375 0  0.90625 -0.84375 0  0.9375 -0.84375 0  0.96875 -0.84375 0  1 -0.84375 0  -1 -0.8125 0  -0.96875 -0.8125 0  -0.9375 -0.8125 0  -0.90625 -0.8125 0  -0.875 -0.8125 0  -0.84375 -0.8125 0  -0.8125 -0.8125 0  -0.78125 -0.8125 0  -0.75 -0.8125 0  -0.71875 -0.8125 0  -0.6875 -0.8125 0  -0.65625 -0.8125 0  -0.625 -0.8125 0  -0.59375 -0.8125 0  -0.5625 -0.8125 0  -0.53125 -0.8125 0  -0.5 -0.8125 0  -0.46875 -0.8125 0  -0.4375 -0.8125 0  -0.40625 -0.8125 0  -0.375 -0.8125 0  -0.34375 -0.8125 0  -0.3125 -0.8125 0  -0.28125 -0.8125 0  -0.25 -0.8125 0  -0.21875 -0.8125 0  -0.1875 -0.8125 0  -0.15625 -0.8125 0  -0.125 -0.8125 0  -0.09375 -0.8125 0  -0.0625 -0.8125 0  -0.03125 -0.8125 0  0 -0.8125 0  0.03125 -0.8125 0  0.0625 -0.8125 0  0.09375 -0.8125 0  0.125 -0.8125 0  0.15625 -0.8125 0  0.1875 -0.8125 0  0.21875 -0.8125 0  0.25 -0.8125 0  0.28125 -0.8125 0  0.3125 -0.8125 0  0.34375 -0.8125 0  0.375 -0.8125 0  0.40625 -0.8125 0  0.4375 -0.8125 0  0.46875 -0.8125 0  0.5 -0.8125 0  0.53125 -0.8125 0  0.5625 -0.8125 0  0.59375 -0.8125 0  0.625 -0.8125 0  0.65625 -0.8125 0  0.6875 -0.8125 0  0.71875 -0.8125 0  0.75 -0.8125 0  0.78125 -0.8125 0  0.8125 -0.8125 0  0.84375 -0.8125 0  0.875 -0.8125 0  0.90625 -0.8125 0  0.9375 -0.8125 0  0.96875 -0.8125 0  1 -0.8125 0  -1 -0.78125 0  -0.96875 -0.78125 0  -0.9375 -0.78125 0  -0.90625 -0.78125 0  -0.875 -0.78125 0  -0.84375 -0.78125 0  -0.8125 -0.78125 0  -0.78125 -0.78125 0  -0.75 -0.78125 0  -0.71875 -0.78125 0  -0.6875 -0.78125 0  -0.65625 -0.78125 0  -0.625 -0.78125 0  -0.59375 -0.78125 0  -0.5625 -0.78125 0  -0.53125 -0.78125 0  -0.5 -0.78125 0  -0.46875 -0.78125 0  -0.4375 -0.78125 0  -0.40625 -0.78125 0  -0.375 -0.78125 0  -0.34375 -0.78125 0  -0.3125 -0.78125 0  -0.28125 -0.78125 0  -0.25 -0.78125 0  -0.21875 -0.78125 0  -0.1875 -0.78125 0  -0.15625 -0.78125 0  -0.125 -0.78125 0  -0.09375 -0.78125 0  -0.0625 -0.78125 0  -0.03125 -0.78125 0  0 -0.78125 0  0.03125 -0.78125 0  0.0625 -0.78125 0  0.09375 -0.78125 0  0.125 -0.78125 0  0.15625 -0.78125 0  0.1875 -0.78125 0  0.21875 -0.78125 0  0.25 -0.78125 0  0.28125 -0.78125 0  0.3125 -0.78125 0  0.34375 -0.78125 0  0.375 -0.78125 0  0.40625 -0.78125 0  0.4375 -0.78125 0  0.46875 -0.78125 0  0.5 -0.78125 0  0.53125 -0.78125 0  0.5625 -0.78125 0  0.59375 -0.78125 0  0.625 -0.78125 0  0.65625 -0.78125 0  0.6875 -0.78125 0  0.71875 -0.78125 0  0.75 -0.78125 0  0.78125 -0.78125 0  0.8125 -0.78125 0  0.84375 -0.78125 0  0.875 -0.78125 0  0.90625 -0.78125 0  0.9375 -0.78125 0  0.96875 -0.78125 0  1 -0.78125 0  -1 -0.75 0  -0.96875 -0.75 0  -0.9375 -0.75 0  -0.90625 -0.75 0  -0.875 -0.75 0  -0.84375 -0.75 0  -0.8125 -0.75 0  -0.78125 -0.75 0  -0.75 -0.75 0  -0.71875 -0.75 0  -0.6875 -0.75 0  -0.65625 -0.75 0  -0.625 -0.75 0  -0.59375 -0.75 0  -0.5625 -0.75 0  -0.53125 -0.75 0  -0.5 -0.75 0  -0.46875 -0.75 0  -0.4375 -0.75 0  -0.40625 -0.75
[...]
<PointData  Scalars="f_15"> 
<DataArray  type="Float64"  Name="f_15"  format="ascii">-4.2611977694375375e-01  -4.2202589092944764e-01  -4.0990155863018141e-01  -3.9021271133681196e-01  -3.6371598040919056e-01  -3.3142962035732793e-01  -2.9459437789161802e-01  -2.5462581072257578e-01  -2.1305988847187682e-01  -1.7149396622117799e-01  -1.3152539905213567e-01  -9.4690156586425794e-02  -6.2403796534563176e-02  -3.5907065606941839e-02  -1.6218218313572355e-02  -4.0938860143061116e-03  0.0000000000000000e+00  -4.0938860143061116e-03  -1.6218218313572379e-02  -3.5907065606941867e-02  -6.2403796534563231e-02  -9.4690156586425836e-02  -1.3152539905213578e-01  -1.7149396622117802e-01  -2.1305988847187687e-01  -2.5462581072257578e-01  -2.9459437789161796e-01  -3.3142962035732798e-01  -3.6371598040919056e-01  -3.9021271133681196e-01  -4.0990155863018141e-01  -4.2202589092944764e-01  -4.2611977694375375e-01  -4.2202589092944764e-01  -4.0990155863018141e-01  -3.9021271133681196e-01  -3.6371598040919056e-01  -3.3142962035732798e-01  -2.9459437789161796e-01  -2.5462581072257578e-01  -2.1305988847187687e-01  -1.7149396622117802e-01  -1.3152539905213578e-01  -9.4690156586425836e-02  -6.2403796534563231e-02  -3.5907065606941867e-02  -1.6218218313572379e-02  -4.0938860143061116e-03  0.0000000000000000e+00  -4.0938860143061116e-03  -1.6218218313572355e-02  -3.5907065606941839e-02  -6.2403796534563176e-02  -9.4690156586425794e-02  -1.3152539905213567e-01  -1.7149396622117799e-01  -2.1305988847187682e-01  -2.5462581072257578e-01  -2.9459437789161802e-01  -3.3142962035732793e-01  -3.6371598040919056e-01  -3.9021271133681196e-01  -4.0990155863018141e-01  -4.2202589092944764e-01  -4.2611977694375375e-01  -4.2202589092944764e-01  -3.6665094369836293e-01  -3.6238538486215638e-01  -3.4739022277327763e-01  -3.2409187267614953e-01  -2.9247839386887631e-01  -2.5377802644333808e-01  -2.0966065659588179e-01  -1.6198502961049194e-01  -1.1264501721854495e-01  -6.3473182165407122e-02  -1.6177480227992844e-02  2.7701987075280470e-02  6.6823913114879743e-02  1.0006875418127323e-01  1.2655597150298467e-01  1.4565661503765162e-01  1.5700171983187033e-01  1.6048673354617937e-01  1.5627203308742946e-01  1.4477947382899414e-01  1.2668460662816147e-01  1.0290360382712073e-01  7.4572633046173023e-02  4.3015198956574525e-02  9.6899639523307293e-03  -2.3890550223706768e-02  -5.6277373786889767e-02  -8.6233604578309003e-02  -1.1288720840656413e-01  -1.3584016713430128e-01  -1.5518457128227461e-01  -1.7140636760809908e-01  -1.8520632791926198e-01  -1.9730391046021464e-01  -2.0828883658333425e-01  -2.1855242022267019e-01  -2.2829109909413522e-01  -2.3755133179957352e-01  -2.4628332309338383e-01  -2.5438344659385254e-01  -2.6172003895204871e-01  -2.6814749564038332e-01  -2.7351683099738561e-01  -2.7768917955789335e-01  -2.8055446000411793e-01  -2.8205335030640272e-01  -2.8219777445036603e-01  -2.8108426058091412e-01  -2.7889540298923488e-01  -2.7588768928578483e-01  -2.7236828928650281e-01  -2.6867080437556379e-01  -2.6514551916470375e-01  -2.6219054478345377e-01  -2.6032487218164752e-01  -2.6031620736306910e-01  -2.6319145298634128e-01  -2.7025485071925920e-01  -2.8231484616564168e-01  -3.0020401898501914e-01  -3.2083740716488313e-01  -3.4857187546226315e-01  -3.5719039563265337e-01  -4.2202589092944764e-01  -4.0990155863018141e-01  -3.4693122252083863e-01  -3.6439864037341591e-01  -3.5382045625701675e-01  -3.3465659096554157e-01  -3.0661535577143872e-01  -2.7155631027828847e-01  -2.3136210414577266e-01  -1.8798555950090687e-01  -1.4333885051639039e-01  -9.9225932234359701e-02  -5.7298510265418316e-02  -1.9024273420219288e-02  1.4339667678781675e-02  4.1770604522886348e-02  6.2501050043412970e-02  7.6035198011287344e-02  8.2159593671172412e-02  8.0946978929750987e-02  7.2752917998586200e-02  5.8205363311921415e-02  3.8187642647647284e-02  1.3814806412368831e-02  -1.3598664075076431e-02  -4.2585626870326167e-02  -7.1597966452314948e-02  -9.9115024722937650e-02  -1.2379217088024240e-01  -1.4463079326299794e-01  -1.6112306269831841e-01  -1.7331212473458907e-01  -1.8173032013881332e-01  -1.8722877907599672e-01  -1.9075895713778185e-01  -1.9317865029679970e-01  -1.9513023110520361e-01  -1.9700081268882152e-01  -1.9894646672305336e-01  -2.0095228654477834e-01  -2.0290273743635992e-01  -2.0464503199323114e-01  -2.0603745635250356e-01  -2.0698121830402538e-01  -2.0743794560236675e-01  -2.0743572173130270e-01  -2.0706631233577574e-01  -2.0647574855745729e-01  -2.0585053373506423e-01  -2.0540191970096153e-01  -2.0535101759718380e-01  -2.0591763787515793e-01  -2.0731577244316715e-01  -2.0976023786100134e-01  -2.1348707734543518e-01  -2.1879784652690823e-01  -2.2610811698858579e-01  -2.3602649862530509e-01  -2.4927705852753268e-01  -2.6670567389145972e-01  -2.8832935785475922e-01  -3.1406272013486575e-01  -3.3912590914911206e-01  -3.6624487991171489e-01  -3.6641250462694447e-01  -4.0990155863018141e-01  -3.9021271133681196e-01  -3.2163288364212789e-01  -3.3995787665549237e-01  -3.2982428316668705e-01  -3.1326043836108169e-01  -2.8746465860592363e-01  -2.5436236299046450e-01  -2.1564801568869429e-01  -1.7321664431741701e-01  -1.2898157011537098e-01  -8.4781591361275721e-02  -4.2315292915696356e-02  -3.0974578518411064e-03  3.1571197425971385e-02  6.0626510084167279e-02  8.3258337966237952e-02  9.8923935575235350e-02  1.0735734107279310e-01  1.0857467184395364e-01  1.0287523657378798e-01  9.0838155695563375e-02  7.3313239762586219e-02  5.1402675770089792e-02  2.6426487610610613e-02  -1.3904007136123251e-04  -2.6761173453012446e-02  -5.1991816182386956e-02  -7.4633701728521726e-02  -9.3891936622483255e-02  -1.0945967715948032e-01  -1.2150234717120258e-01  -1.3054399503821215e-01  -1.3729825680825464e-01  -1.4250043262435902e-01  -1.4678281936298287e-01  -1.5060870712230931e-01  -1.5425880831558941e-01  -1.5785374798148263e-01  -1.6139510458849193e-01  -1.6481092384392967e-01  -1.6799664650133062e-01  -1.7084719430432657e-01  -1.7327955915820484e-01  -1.7524720309282704e-01  -1.7674821388973305e-01  -1.7782896433307416e-01  -1.7858457274300937e-01  -1.7915701205960291e-01  -1.7973153419426974e-01  -1.8053207747211986e-01  -1.8181693987742878e-01  -1.8387638204413501e-01  -1.8703636328211853e-01  -1.9166926269619688e-01  -1.9822258819822172e-01  -2.0723531837683903e-01  -2.1938157377896142e-01  -2.3529234863430637e-01  -2.5554528244466990e-01  -2.7945851031813945e-01  -3.0636684941859038e-01  -3.3004937712936572e-01  -3.5405835285797832e-01  -3.4746120436177974e-01  -3.9021271133681196e-01  -3.6371598040919056e-01  -2.9853545716919427e-01  -3.1455966281655801e-01  -3.0581419585007402e-01  -2.9086429958822330e-01  -2.6731083235223596e-01  -2.3693440971105909e-01  -2.0115568493280767e-01  -1.6171168723171439e-01  -1.2040276949334994e-01  -7.8993622929545176e-02  -3.9129958792215300e-02  -2.2814134056112442e-03  3.0297175377551753e-02  5.7592391418788996e-02  7.8851071670824099e-02  9.3593580487997111e-02  1.0162225623978752e-01  1.0302492331778355e-01  9.8172707592257158e-02  8.7710562653489366e-02  7.2537350980534779e-02  5.3770178293281311e-02  3.2685794550492232e-02  1.0632713458999660e-02  -1.1085921358674195e-02  -3.1345807244784599e-02  -4.9323558973327367e-02  -6.4572719807396456e-02  -7.7028629911295943e-02  -8.6941494322609170e-02  -9.4762658842164435e-02  -1.0102106858980277e-01  -1.0622092233073302e-01  -1.1077570781366826e-01  -1.1497884494729638e-01  -1.1900284111730459e-01  -1.2291662158803428e-01  -1.2671195372883834e-01  -1.3033218402703128e-01  -1.3369894070287294e-01  -1.3673447749540221e-01  -1.3937893196486648e-01  -1.4160271842549124e-01  -1.4341476418980423e-01  -1.4486734304234850e-01  -1.4605822491497325e-01  -1.4713075942387477e-01  -1.4827259425081427e-01  -1.4971382898382724e-01  -1.5172597423624479e-01  -1.5462301110368068e-01  -1.5876829822499863e-01  -1.6458542720078101e-01  -1.7258425222542534e-01  -1.8335630658086655e-01  -1.9759522978300822e-01  -2.1581123241837386e-01  -2.3833779125145216e-01  -2.6383352193372289e-01  -2.9133290932449696e-01  -3.1339008601712043e-01  -3.3537330562578832e-01  -3.2463047795116512e-01  -3.6371598040919056e-01  -3.3142962035732793e-01  -2.7982272858021312e-01  -2.8934955947117935e-01  -2.7926835300825631e-01  -2.6371146662069872e-01  -2.4092799667441836e-01  -2.1210946104414680e-01  -1.7838426252559786e-01  -1.4122053628428197e-01  -1.0220049976541899e-01  -6.2930800726997679e-02  -2.4949230693592797e-02  1.0345515762388784e-02  4.1745388106585568e-02  6.8269305153006429e-02  8.9188144550541568e-02  1.0404125472670431e-01  1.1264606285381651e-01  1.1510101763550416e-01  1.1178082493118087e-01  1.0332142664726823e-01  9.0590657429478152e-02  7.4639516908793321e-02  5.6630031092388317e-02  3.7740226519788020e-02  1.9055215584754488e-02  1.4630240282523556e-03  -1.4421037390059383e-02  -2.8282214044156928e-02  -4.0081352892346676e-02  -4.9989076953372479e-02  -5.8301639278244194e-02  -6.5360861563061201e-02  -7.1492581402421360e-02  -7.6968224076925898e-02  -8.1987282256606384e-02  -8.6675495437133043e-02  -9.1093384891556203e-02  -9.5250651147054777e-02  -9.9123078777740514e-02  -1.0266949395093021e-01  -1.0584723473507780e-01  -1.0862526896063630e-01  -1.1099472347596738e-01  -1.1297689336683162e-01  -1.1462905364314706e-01  -1.1604841294740113e-01  -1.1737464841340076e-01  -1.1879150218103796e-01  -1.2052809432401569e-01  -1.2286112162252655e-01  -1.2611890004861206e-01  -1.3069095972170255e-01  -1.3703901714604086e-01  -1.4572178731224761e-01  -1.5736891749868542e-01  -1.7268199495655598e-01  -1.9203121631068107e-01  -2.1552727728620369e-01  -2.4119294571149874e-01  -2.6804914536073804e-01  -2.8749508923296502e-01  -3.0761025019713817e-01  -2.9227500908703480e-01  -3.3142962035732793e-01  -2.9459437789161802e-01  -2.6667408291157063e-01  -2.6748662318505922e-01  -2.5514054322670970e-01  -2.3805319877364603e-01  -2.1509915387239278e-01  -1.8712448453863118e-01  -1.5504718011740393e-01  -1.2006261414891138e-01  -8.3507994159271876e-02  -4.6780288385580564e-02  -1.1247170639047187e-02  2.1826426589203068e-02  5.1337008941136297e-02  7.6386315224755308e-02  9.6312049770548108e-02  1.1070753613931651e-01  1.1943154236766712e-01  1.2260839185466953e-01  1.2061716964827450e-01  1.1406773324638107e-01  1.0376074519849934e-01  9.0629875686082564e-02  7.5667338374736715e-02  5.9839036664326661e-02  4.4001235282206008e-02  2.8833874300783342e-02  1.4803608326351872e-02  2.1620712923885125e-03  -9.0250112782087593e-03  -1.8829713934801730e-02  -2.7408587398815357e-02  -3.4954920661679531e-02  -4.1662208763461529e-02  -4.7700042459176230e-02  -5.3201028011075756e-02  -5.8256506169573188e-02  -6.2918764605823019e-02  -6.7207741023086895e-02  -7.1120419920825503e-02  -7.4641462922149682e-02  -7.7753871982075090e-02  -8.0448908699591495e-02  -8.2734781473101524e-02  -8.4643959624387824e-02  -8.6239111898046172e-02  -8.7617869613636684e-02  -8.8916652541224619e-02  -9.0314025707477263e-02  -9.2034118773396484e-02  -9.4351334232124856e-02  -9.7596995903656641e-02  -1.0217189394925554e-01  -1.0855787081429666e-01  -1.1734276089465648e-01  -1.2917210613978991e-01  -1.4473773467288212e-01  -1.6425447676928370e-01  -1.8766102256649311e-01  -2.1241504500070615e-01  -2.3785145815392747e-01  -2.5421339797116288e-01  -2.7296457126415430e-01  -2.5301321799996629e-01  -2.9459437789161802e-01  -2.5462581072257578e-01  -2.5891817414905077e-01  -2.4993603699015715e-01  -2.3483406188222816e-01  -2.1555165718498406e-01  -1.9169603899736462e-01  -1.6387213123396821e-01  -1.3281338980821186e-01  -9.9485703770536574e-02  -6.4996534588574267e-02  -3.0524068121704995e-02  2.7572413713410249e-03  3.3744386294244311e-02  6.1464121424644046e-02  8.5119340611332694e-02  1.0412310560097010e-01  1.1812058839869001e-01  1.2699919631997408e-01  1.3088664527975183e-01  1.3013611391186383e-01  1.2529735710349937e-01  1.1707322633223613e-01  1.0626287918576682e-01  9.3695916025273038e-02  8.0165011105312031e-02  6.6366705558745021e-02  5.2859468836142065e-02  4.0044445558641527e-02  2.8168813537685553e-02  1.7346668051658395e-02  7.5897741222494845e-03  -1.1592278709575956e-03  -8.9964857975716114e-03  -1.6032300094637374e-02  -2.2373087876482629e-02  -2.8109728069647063e-02  -3.3311562926496355e-02  -3.8025122786182065e-02  -4.2276549890982743e-02  -4.6076665847570850e-02  -4.9427664462638077e-02  -5.2330543721731397e-02  -5.4792586140266740e-02  -5.6834424626011494e-02  -5.8496444466680259e-02  -5.9844453115055964e-02  -6.0974689970853611e-02  -6.2018390795691554e-02  -6.3146297948266969e-02  -6.4573663913553347e-02  -6.6566955733437183e-02  -6.9452741874976992e-02  -7.3632907074222431e-02  -7.9596636461750775e-02  -8.7945926263937158e-02  -9.9324844111295094e-02  -1.1440510125960131e-01  -1.3324573277682875e-01  -1.5568664325462972e-01  -1.7870388543146820e-01  -2.0223896348965151e-01  -2.1526844327340780e-01  -2.3319600958376138e-01  -2.0831654797192756e-01  -2.5462581072257578e-01  -2.1305988847187682e-01  -2.5554522200279223e-01  -2.3651209733449066e-01  -2.1876702058187966e-01  -1.9723448237492830e-01  -1.7227951385743648e-01  -1.4430917498843526e-01  -1.1393243649371597e-01  -8.1944157240808307e-02  -4.9260794229448845e-02  -1.6864050022997519e-02  1.4259662117983024e-02  4.3177481472479143e-02  6.9062384086009551e-02  9.1236578489762396e-02  1.0920424404025442e-01  1.2267257593896598e-01  1.3156054855317045e-01  1.3599493054845191e-01  1.3629329392464778e-01  1.3293423508328336e-01  1.2651617918674019e-01  1.1770778442273955e-01  1.0719488344468286e-01  9.5630186941022960e-02  8.3592017603531021e-02  7.1556682030860949e-02  5.9886246508641473e-02  4.8830416039325440e-02  3.8539006602409463e-02  2.9080671096977741e-02  2.0463895073091588e-02  1.2657313569412312e-02  5.6074735349887859e-03  -7.4692140247267769e-04  -6.4646771516285104e-03  -1.1595633077284876e-02  -1.6177743387153408e-02  -2.0237167374875093e-02  -2.3790726579438329e-02  -2.6850008232472994e-02  -2.9426476730785453e-02  -3.1537027492665091e-02  -3.3209606590542000e-02  -3.4488632827879055e-02  -3.5440148330982441e-02  -3.6156727470386743e-02  -3.6762344564554163e-02  -3.7417580855035715e-02  -3.8325720602381839e-02  -3.9740978777010737e-02  -4.1979162639767927e-02  -4.5435161958654782e-02  -5.0595002685473858e-02  -5.8062474113200681e-02  -6.8467266932053836e-02  -8.2458616206290580e-02  -9.9954640965522132e-02  -1.2078183136346314e-01  -1.4151583800974138e-01  -1.6293815218472468e-01  -1.7258343864772790e-01  -1.9023800688650452e-01  -1.6011342027831246e-01  -2.1305988847187682e-01  -1.7149396622117799e-01  -2.5532379610902889e-01  -2.2650435925702928e-01  -2.0653795308586884e-01  -1.8296167491007978e-01  -1.5696232267737129e-01  -1.2877054842601982e-01  -9.8905385679307845e-02  -6.8027188514716563e-02  -3.6897539800798428e-02  -6.3314009580505920e-03  2.2852672582363731e-02  4.9880719881366470e-02  7.4067378868494474e-02  9.4853115130869026e-02  1.1183260034522113e-01  1.2477274915091424e-01  1.3361944853319879e-01  1.3849256955680969e-01  1.3966945558664481e-01  1.3755795880574623e-01  1.3266114454914418e-01  1.2553696182085219e-01  1.1675703949142657e-01  1.0686904810832787e-01  9.6366430285020996e-02  8.5667922213951364e-02  7.5107500113545805e-02  6.4933753046296477e-02  5.5316593516712698e-02  4.6358787145635266e-02  3.8109913312213417e-02  3.0580774934922901e-02  2.3756808494260120e-02  1.7609510723656879e-02  1.2105339483157378e-02  7.2118636211300543e-03  2.9012426151003223e-03  -8.4869813106195724e-04  -4.0553677395362663e-03  -6.7338219105171461e-03  -8.9002025052708038e-03  -1.0575811618697207e-02  -1.1791490571245006e-02  -1.2592124063593094e-02  -1.3041174117679325e-02  -1.3225309323674649e-02  -1.3259305236103951e-02  -1.3291633585001340e-02  -1.3511275363141244e-02  -1.4157061017426274e-02  -1.5529663710031637e-02  -1.8010906104682999e-02  -2.2075708827584955e-02  -2.8320497027015522e-02  -3.7353273820180034e-02  -4.9806087982261715e-02  -6.5483171562291664e-02  -8.4281142689208235e-02  -1.0244270588881092e-01  -1.2174967871933937e-01  -1.2809080908963752e-01  -1.4598800609778637e-01  -1.1029253005683202e-01  -1.7149396622117799e-01  -1.3152539905213567e-01  -2.5719471491266727e-01  -2.1915072974256480e-01  -1.9748489651354509e-01  -1.7217310597208935e-01  -1.4530866181763236e-01  -1.1694857518145411e-01  -8.7544614376701010e-02  -5.7648684155683583e-02  -2.7895903521116802e-02  1.0386110921722965e-03  2.8480759419563812e-02  5.3796962979332272e-02  7.6430073196885079e-02  9.5929637184889074e-02  1.1197475016471567e-01  1.2438812536311022e-01  1.3314054106942755e-01  1.3834543430949364e-01  1.4024414706393742e-01  1.3918313492851125e-01  1.3558527606577225e-01  1.2991808503054025e-01  1.2266198762833296e-01  1.1428167719502909e-01  1.0520296483071213e-01  9.5796560947686252e-02  8.6369147852084299e-02  7.7161154874926724e-02  6.8349996679241631e-02  6.0057224637273594e-02  5.2358009500350397e-02  4.5291541324249597e-02  3.8871189090199057e-02  3.3093569099179980e-02  2.7945961302949174e-02  2.3411793044480350e-02  1.9474132489803841e-02  1.6117322576607248e-02  1.3327001026402784e-02  1.1088826674947006e-02  9.3862304827540145e-03  8.1974926657415910e-03  7.4923666109212497e-03  7.2284053582187075e-03  7.3470283892288187e-03  7.7692661645333960e-03  8.3909703197799206e-03  9.0770742803989238e-03  9.6543351895467325e-03  9.9012490156172219e-03  9.5350890811847725e-03  8.1912350577092539e-03  5.4112559680350404e-03  6.1203767645819421e-04  -6.7907574214714564e-03  -1.7422247057378614e-02  -3.1006508499918092e-02  -4.7579066824271231e-02  -6.3100058327536693e-02  -8.0437235655791861e-02  -8.3642949223317109e-02  -1.0224390220911021e-01  -6.0681080562105361e-02  -1.3152539905213567e-01  -9.4690156586425794e-02  -2.6039341636276803e-01  -2.1383807837031207e-01  -1.9095471708949222e-01  -1.6420176159957933e-01  -1.3665507499311763e-01  -1.0819962270661131e-01  -7.9237976084516992e-02  -5.0230507976899978e-02  -2.1705610124227399e-02  5.7803858029567591e-03  3.1676904947077908e-02  5.5471389771366807e-02  7.6718073480797302e-02  9.5061828176755320e-02  1.1025576530995172e-01  1.2217157835542893e-01  1.3080205924639221e-01  1.3625576907340328e-01  1.3874446786222111e-01  1.3856453504057784e-01  1.3607417958647955e-01  1.3166861546126027e-01  1.2575549804438330e-01  1.1873272434433933e-01  1.1097023025860926e-01  1.0279677361536964e-01  9.4491996679740176e-02  8.6283457376968298e-02  7.8347863489406686e-02  7.0815494052782896e-02  6.3776703140685315e-02  5.7289464157105223e-02  5.1387049158077382e-02  4.6085142900892904e-02  4.1387893847075925e-02  3.7292618711443459e-02  3.3793047822523278e-02  3.0881152148663143e-02  2.8547687834295551e-02  2.6781658539655830e-02  2.5568911568652344e-02  2.4890069994113563e-02  2.4717960312492418e-02  2.5014629664998001e-02  2.5727964143734218e-02  2.6787812947969739e-02  2.8101392033311464e-02  2.9547529144420489e-02  3.0969168930666986e-02  3.2162816033258261e-02  3.2864905725876789e-02  3.2730148172641194e-02  3.1319363559973064e-02  2.8065644384264028e-02  2.2405960461295733e-02  1.3710465998803675e-02  2.3005473720097143e-03  -1.2043014815594388e-02  -2.5034784641027343e-02  -4.0644374512160623e-02  -4.0947466073383211e-02  -6.0654362685181949e-02  -1.2978091210141263e-02  -9.4690156586425794e-02  -6.2403796534563176e-02  -2.6439267432756064e-01  -2.1012244917435685e-01  -1.8639470931788638e-01  -1.5843874191189394e-01  -1.3035508738389684e-01  -1.0185949225467214e-01  -7.3319653408718793e-02  -4.5116759395637022e-02  -1.7687497996466774e-02  8.5139514989089893e-03  3.3043030513937810e-02  5.5490917212618084e-02  7.5507277843725559e-02  9.2818716985194213e-02  1.0724197436157808e-01  1.1869120361788729e-01  1.2717902548794516e-01  1.3281149171778051e-01  1.3577755298331698e-01  1.3633408932166033e-01  1.3478791058621661e-01  1.3147636730439022e-01  1.2674823058542273e-01  1.2094633715450938e-01  1.1439315789855742e-01  1.0738000778022808e-01  1