<?xml version="1.0"?>
<VTKFile type="UnstructuredGrid"  version="0.1"  >
<UnstructuredGrid>
<Piece  NumberOfPoints="4225" NumberOfCells="8192">
<Points>
<DataArray  type="Float64"  NumberOfComponents="3"  format="ascii">-1 -1 0  -0.96875 -1 0  -0.9375 -1 0  -0.90625 -1 0  -0.875 -1 0  -0.84375 -1 0  -0.8125 -1 0  -0.78125 -1 0  -0.75 -1 0  -0.71875 -1 0  -0.6875 -1 0  -0.65625 -1 0  -0.625 -1 0  -0.59375 -1 0  -0.5625 -1 0  -0.53125 -1 0  -0.5 -1 0  -0.46875 -1 0  -0.4375 -1 0  -0.40625 -1 0  -0.375 -1 0  -0.34375 -1 0  -0.3125 -1 0  -0.28125 -1 0  -0.25 -1 0  -0.21875 -1 0  -0.1875 -1 0  -0.15625 -1 0  -0.125 -1 0  -0.09375 -1 0  -0.0625 -1 0  -0.03125 -1 0  0 -1 0  0.03125 -1 0  0.0625 -1 0  0.09375 -1 0  0.125 -1 0  0.15625 -1 0  0.1875 -1 0  0.21875 -1 0  0.25 -1 0  0.28125 -1 0  0.3125 -1 0  0.34375 -1 0  0.375 -1 0  0.40625 -1 0  0.4375 -1 0  0.46875 -1 0  0.5 -1 0  0.53125 -1 0  0.5625 -1 0  0.59375 -1 0  0.625 -1 0  0.65625 -1 0  0.6875 -1 0  0.71875 -1 0  0.75 -1 0  0.78125 -1 0  0.8125 -1 0  0.84375 -1 0  0.875 -1 0  0.90625 -1 0  0.9375 -1 0  0.96875 -1 0  1 -1 0  -1 -0.96875 0  -0.96875 -0.96875 0  -0.9375 -0.96875 0  -0.90625 -0.96875 0  -0.875 -0.96875 0  -0.84375 -0.96875 0  -0.8125 -0.96875 0  -0.78125 -0.96875 0  -0.75 -0.96875 0  -0.71875 -0.96875 0  -0.6875 -0.96875 0  -0.65625 -0.96875 0  -0.625 -0.96875 0  -0.59375 -0.96875 0  -0.5625 -0.96875 0  -0.53125 -0.96875 0  -0.5 -0.96875 0  -0.46875 -0.96875 0  -0.4375 -0.96875 0  -0.40625 -0.96875 0  -0.375 -0.96875 0  -0.34375 -0.96875 0  -0.3125 -0.96875 0  -0.28125 -0.96875 0  -0.25 -0.96875 0  -0.21875 -0.96875 0  -0.1875 -0.96875 0  -0.15625 -0.96875 0  -0.125 -0.96875 0  -0.09375 -0.96875 0  -0.0625 -0.96875 0  -0.03125 -0.96875 0  0 -0.96875 0  0.03125 -0.96875 0  0.0625 -0.96875 0  0.09375 -0.96875 0  0.125 -0.96875 0  0.15625 -0.96875 0  0.1875 -0.96875 0  0.21875 -0.96875 0  0.25 -0.96875 0  0.28125 -0.96875 0  0.3125 -0.96875 0  0.34375 -0.96875 0  0.375 -0.96875 0  0.40625 -0.96875 0  0.4375 -0.96875 0  0.46875 -0.96875 0  0.5 -0.96875 0  0.53125 -0.96875 0  0.5625 -0.96875 0  0.59375 -0.96875 0  0.625 -0.96875 0  0.65625 -0.96875 0  0.6875 -0.96875 0  0.71875 -0.96875 0  0.75 -0.96875 0  0.78125 -0.96875 0  0.8125 -0.96875 0  0.84375 -0.96875 0  0.875 -0.96875 0  0.90625 -0.96875 0  0.9375 -0.96875 0  0.96875 -0.96875 0  1 -0.96875 0  -1 -0.9375 0  -0.96875 -0.9375 0  -0.9375 -0.9375 0  -0.90625 -0.9375 0  -0.875 -0.9375 0  -0.84375 -0.9375 0  -0.8125 -0.9375 0  -0.78125 -0.9375 0  -0.75 -0.9375 0  -0.71875 -0.9375 0  -0.6875 -0.9375 0  -0.65625 -0.9375 0  -0.625 -0.9375 0  -0.59375 -0.9375 0  -0.5625 -0.9375 0  -0.53125 -0.9375 0  -0.5 -0.9375 0  -0.46875 -0.9375 0  -0.4375 -0.9375 0  -0.40625 -0.9375 0  -0.375 -0.9375 0  -0.34375 -0.9375 0  -0.3125 -0.9375 0  -0.28125 -0.9375 0  -0.25 -0.9375 0  -0.21875 -0.9375 0  -0.1875 -0.9375 0  -0.15625 -0.9375 0  -0.125 -0.9375 0  -0.09375 -0.9375 0  -0.0625 -0.9375 0  -0.03125 -0.9375 0  0 -0.9375 0  0.03125 -0.9375 0  0.0625 -0.9375 0  0.09375 -0.9375 0  0.125 -0.9375 0  0.15625 -0.9375 0  0.1875 -0.9375 0  0.21875 -0.9375 0  0.25 -0.9375 0  0.28125 -0.9375 0  0.3125 -0.9375 0  0.34375 -0.9375 0  0.375 -0.9375 0  0.40625 -0.9375 0  0.4375 -0.9375 0  0.46875 -0.9375 0  0.5 -0.9375 0  0.53125 -0.9375 0  0.5625 -0.9375 0  0.59375 -0.9375 0  0.625 -0.9375 0  0.65625 -0.9375 0  0.6875 -0.9375 0  0.71875 -0.9375 0  0.75 -0.9375 0  0.78125 -0.9375 0  0.8125 -0.9375 0  0.84375 -0.9375 0  0.875 -0.9375 0  0.90625 -0.9375 0  0.9375 -0.9375 0  0.96875 -0.9375 0  1 -0.9375 0  -1 -0.90625 0  -0.96875 -0.90625 0  -0.9375 -0.90625 0  -0.90625 -0.90625 0  -0.875 -0.90625 0  -0.84375 -0.90625 0  -0.8125 -0.90625 0  -0.78125 -0.90625 0  -0.75 -0.90625 0  -0.71875 -0.90625 0  -0.6875 -0.90625 0  -0.65625 -0.90625 0  -0.625 -0.90625 0  -0.59375 -0.90625 0  -0.5625 -0.90625 0  -0.53125 -0.90625 0  -0.5 -0.90625 0  -0.46875 -0.90625 0  -0.4375 -0.90625 0  -0.40625 -0.90625 0  -0.375 -0.90625 0  -0.34375 -0.90625 0  -0.3125 -0.90625 0  -0.28125 -0.90625 0  -0.25 -0.90625 0  -0.21875 -0.90625 0  -0.1875 -0.90625 0  -0.15625 -0.90625 0  -0.125 -0.90625 0  -0.09375 -0.90625 0  -0.0625 -0.90625 0  -0.03125 -0.90625 0  0 -0.90625 0  0.03125 -0.90625 0  0.0625 -0.90625 0  0.09375 -0.90625 0  0.125 -0.90625 0  0.15625 -0.90625 0  0.1875 -0.90625 0  0.21875 -0.90625 0  0.25 -0.90625 0  0.28125 -0.90625 0  0.3125 -0.90625 0  0.34375 -0.90625 0  0.375 -0.90625 0  0.40625 -0.90625 0  0.4375 -0.90625 0  0.46875 -0.90625 0  0.5 -0.90625 0  0.53125 -0.90625 0  0.5625 -0.90625 0  0.59375 -0.90625 0  0.625 -0.90625 0  0.65625 -0.90625 0  0.6875 -0.90625 0  0.71875 -0.90625 0  0.75 -0.90625 0  0.78125 -0.90625 0  0.8125 -0.90625 0  0.84375 -0.90625 0  0.875 -0.90625 0  0.90625 -0.90625 0  0.9375 -0.90625 0  0.96875 -0.90625 0  1 -0.90625 0  -1 -0.875 0  -0.96875 -0.875 0  -0.9375 -0.875 0  -0.90625 -0.875 0  -0.875 -0.875 0  -0.84375 -0.875 0  -0.8125 -0.875 0  -0.78125 -0.875 0  -0.75 -0.875 0  -0.71875 -0.875 0  -0.6875 -0.875 0  -0.65625 -0.875 0  -0.625 -0.875 0  -0.59375 -0.875 0  -0.5625 -0.875 0  -0.53125 -0.875 0  -0.5 -0.875 0  -0.46875 -0.875 0  -0.4375 -0.875 0  -0.40625 -0.875 0  -0.375 -0.875 0  -0.34375 -0.875 0  -0.3125 -0.875 0  -0.28125 -0.875 0  -0.25 -0.875 0  -0.21875 -0.875 0  -0.1875 -0.875 0  -0.15625 -0.875 0  -0.125 -0.875 0  -0.09375 -0.875 0  -0.0625 -0.875 0  -0.03125 -0.875 0  0 -0.875 0  0.03125 -0.875 0  0.0625 -0.875 0  0.09375 -0.875 0  0.125 -0.875 0  0.15625 -0.875 0  0.1875 -0.875 0  0.21875 -0.875 0  0.25 -0.875 0  0.28125 -0.875 0  0.3125 -0.875 0  0.34375 -0.875 0  0.375 -0.875 0  0.40625 -0.875 0  0.4375 -0.875 0  0.46875 -0.875 0  0.5 -0.875 0  0.53125 -0.875 0  0.5625 -0.875 0  0.59375 -0.875 0  0.625 -0.875 0  0.65625 -0.875 0  0.6875 -0.875 0  0.71875 -0.875 0  0.75 -0.875 0  0.78125 -0.875 0  0.8125 -0.875 0  0.84375 -0.875 0  0.875 -0.875 0  0.90625 -0.875 0  0.9375 -0.875 0  0.96875 -0.875 0  1 -0.875 0  -1 -0.84375 0  -0.96875 -0.84375 0  -0.9375 -0.84375 0  -0.90625 -0.84375 0  -0.875 -0.84375 0  -0.84375 -0.84375 0  -0.8125 -0.84375 0  -0.78125 -0.84375 0  -0.75 -0.84375 0  -0.71875 -0.84375 0  -0.6875 -0.84375 0  -0.65625 -0.84375 0  -0.625 -0.84375 0  -0.59375 -0.84375 0  -0.5625 -0.84375 0  -0.53125 -0.84375 0  -0.5 -0.84375 0  -0.46875 -0.84375 0  -0.4375 -0.84375 0  -0.40625 -0.84375 0  -0.375 -0.84375 0  -0.34375 -0.84375 0  -0.3125 -0.84375 0  -0.28125 -0.84375 0  -0.25 -0.84375 0  -0.21875 -0.84375 0  -0.1875 -0.84375 0  -0.15625 -0.84375 0  -0.125 -0.84375 0  -0.09375 -0.84375 0  -0.0625 -0.84375 0  -0.03125 -0.84375 0  0 -0.84375 0  0.03125 -0.84375 0  0.0625 -0.84375 0  0.09375 -0.84375 0  0.125 -0.84375 0  0.15625 -0.84375 0  0.1875 -0.84375 0  0.21875 -0.84375 0  0.25 -0.84375 0  0.28125 -0.84375 0  0.3125 -0.84375 0  0.34375 -0.84375 0  0.375 -0.84375 0  0.40625 -0.84375 0  0.4375 -0.84375 0  0.46875 -0.84375 0  0.5 -0.84375 0  0.53125 -0.84375 0  0.5625 -0.84375 0  0.59375 -0.84375 0  0.625 -0.84375 0  0.65625 -0.84375 0  0.6875 -0.84375 0  0.71875 -0.84375 0  0.75 -0.84375 0  0.78125 -0.84375 0  0.8125 -0.84375 0  0.84375 -0.84375 0  0.875 -0.84375 0  0.90625 -0.84375 0  0.9375 -0.84375 0  0.96875 -0.84375 0  1 -0.84375 0  -1 -0.8125 0  -0.96875 -0.8125 0  -0.9375 -0.8125 0  -0.90625 -0.8125 0  -0.875 -0.8125 0  -0.84375 -0.8125 0  -0.8125 -0.8125 0  -0.78125 -0.8125 0  -0.75 -0.8125 0  -0.71875 -0.8125 0  -0.6875 -0.8125 0  -0.65625 -0.8125 0  -0.625 -0.8125 0  -0.59375 -0.8125 0  -0.5625 -0.8125 0  -0.53125 -0.8125 0  -0.5 -0.8125 0  -0.46875 -0.8125 0  -0.4375 -0.8125 0  -0.40625 -0.8125 0  -0.375 -0.8125 0  -0.34375 -0.8125 0  -0.3125 -0.8125 0  -0.28125 -0.8125 0  -0.25 -0.8125 0  -0.21875 -0.8125 0  -0.1875 -0.8125 0  -0.15625 -0.8125 0  -0.125 -0.8125 0  -0.09375 -0.8125 0  -0.0625 -0.8125 0  -0.03125 -0.8125 0  0 -0.8125 0  0.03125 -0.8125 0  0.0625 -0.8125 0  0.09375 -0.8125 0  0.125 -0.8125 0  0.15625 -0.8125 0  0.1875 -0.8125 0  0.21875 -0.8125 0  0.25 -0.8125 0  0.28125 -0.8125 0  0.3125 -0.8125 0  0.34375 -0.8125 0  0.375 -0.8125 0  0.40625 -0.8125 0  0.4375 -0.8125 0  0.46875 -0.8125 0  0.5 -0.8125 0  0.53125 -0.8125 0  0.5625 -0.8125 0  0.59375 -0.8125 0  0.625 -0.8125 0  0.65625 -0.8125 0  0.6875 -0.8125 0  0.71875 -0.8125 0  0.75 -0.8125 0  0.78125 -0.8125 0  0.8125 -0.8125 0  0.84375 -0.8125 0  0.875 -0.8125 0  0.90625 -0.8125 0  0.9375 -0.8125 0  0.96875 -0.8125 0  1 -0.8125 0  -1 -0.78125 0  -0.96875 -0.78125 0  -0.9375 -0.78125 0  -0.90625 -0.78125 0  -0.875 -0.78125 0  -0.84375 -0.78125 0  -0.8125 -0.78125 0  -0.78125 -0.78125 0  -0.75 -0.78125 0  -0.71875 -0.78125 0  -0.6875 -0.78125 0  -0.65625 -0.78125 0  -0.625 -0.78125 0  -0.59375 -0.78125 0  -0.5625 -0.78125 0  -0.53125 -0.78125 0  -0.5 -0.78125 0  -0.46875 -0.78125 0  -0.4375 -0.78125 0  -0.40625 -0.78125 0  -0.375 -0.78125 0  -0.34375 -0.78125 0  -0.3125 -0.78125 0  -0.28125 -0.78125 0  -0.25 -0.78125 0  -0.21875 -0.78125 0  -0.1875 -0.78125 0  -0.15625 -0.78125 0  -0.125 -0.78125 0  -0.09375 -0.78125 0  -0.0625 -0.78125 0  -0.03125 -0.78125 0  0 -0.78125 0  0.03125 -0.78125 0  0.0625 -0.78125 0  0.09375 -0.78125 0  0.125 -0.78125 0  0.15625 -0.78125 0  0.1875 -0.78125 0  0.21875 -0.78125 0  0.25 -0.78125 0  0.28125 -0.78125 0  0.3125 -0.78125 0  0.34375 -0.78125 0  0.375 -0.78125 0  0.40625 -0.78125 0  0.4375 -0.78125 0  0.46875 -0.78125 0  0.5 -0.78125 0  0.53125 -0.78125 0  0.5625 -0.78125 0  0.59375 -0.78125 0  0.625 -0.78125 0  0.65625 -0.78125 0  0.6875 -0.78125 0  0.71875 -0.78125 0  0.75 -0.78125 0  0.78125 -0.78125 0  0.8125 -0.78125 0  0.84375 -0.78125 0  0.875 -0.78125 0  0.90625 -0.78125 0  0.9375 -0.78125 0  0.96875 -0.78125 0  1 -0.78125 0  -1 -0.75 0  -0.96875 -0.75 0  -0.9375 -0.75 0  -0.90625 -0.75 0  -0.875 -0.75 0  -0.84375 -0.75 0  -0.8125 -0.75 0  -0.78125 -0.75 0  -0.75 -0.75 0  -0.71875 -0.75 0  -0.6875 -0.75 0  -0.65625 -0.75 0  -0.625 -0.75 0  -0.59375 -0.75 0  -0.5625 -0.75 0  -0.53125 -0.75 0  -0.5 -0.75 0  -0.46875 -0.75 0  -0.4375 -0.75 0  -0.40625 -0.75
[...]
<PointData  Scalars="f_15"> 
<DataArray  type="Float64"  Name="f_15"  format="ascii">-4.8216572357813953e-01  -4.7753338398927581e-01  -4.6381438343523862e-01  -4.4153593541361580e-01  -4.1155418818798023e-01  -3.7502132349025569e-01  -3.3334127882290954e-01  -2.8811579492806921e-01  -2.4108286178906971e-01  -1.9404992865007034e-01  -1.4882444475522988e-01  -1.0714440008788374e-01  -7.0611535390159283e-02  -4.0629788164523770e-02  -1.8351340142900810e-02  -4.6323395888637287e-03  0.0000000000000000e+00  -4.6323395888637287e-03  -1.8351340142900838e-02  -4.0629788164523797e-02  -7.0611535390159352e-02  -1.0714440008788380e-01  -1.4882444475523002e-01  -1.9404992865007045e-01  -2.4108286178906976e-01  -2.8811579492806921e-01  -3.3334127882290948e-01  -3.7502132349025580e-01  -4.1155418818798023e-01  -4.4153593541361580e-01  -4.6381438343523868e-01  -4.7753338398927581e-01  -4.8216572357813953e-01  -4.7753338398927581e-01  -4.6381438343523868e-01  -4.4153593541361580e-01  -4.1155418818798023e-01  -3.7502132349025580e-01  -3.3334127882290948e-01  -2.8811579492806921e-01  -2.4108286178906976e-01  -1.9404992865007045e-01  -1.4882444475523002e-01  -1.0714440008788380e-01  -7.0611535390159352e-02  -4.0629788164523797e-02  -1.8351340142900838e-02  -4.6323395888637287e-03  0.0000000000000000e+00  -4.6323395888637287e-03  -1.8351340142900810e-02  -4.0629788164523770e-02  -7.0611535390159283e-02  -1.0714440008788374e-01  -1.4882444475522988e-01  -1.9404992865007034e-01  -2.4108286178906971e-01  -2.8811579492806921e-01  -3.3334127882290954e-01  -3.7502132349025569e-01  -4.1155418818798023e-01  -4.4153593541361580e-01  -4.6381438343523862e-01  -4.7753338398927581e-01  -4.8216572357813953e-01  -4.7753338398927581e-01  -3.6501864151951990e-01  -2.8969565380524137e-01  -1.9271520706684495e-01  -8.6482202016040871e-02  2.4715759495608794e-02  1.3769318971083580e-01  2.4984600844827201e-01  3.5880817679009930e-01  4.6232726837082094e-01  5.5823705056080242e-01  6.4448248097123495e-01  7.1917211803373871e-01  7.8064221793305189e-01  8.2752180870272274e-01  8.5879083173017012e-01  8.7382577451915788e-01  8.7242871035956560e-01  8.5483744013913965e-01  8.2171559151025397e-01  7.7412314671620819e-01  7.1346894704436303e-01  6.4144824933052669e-01  5.5996928495954856e-01  4.7107380234699892e-01  3.7685667304548015e-01  2.7938956615219279e-01  1.8065267522160916e-01  8.2477352211080254e-02  -1.3498961568751924e-02  -1.0586522577351989e-01  -1.9345721514372102e-01  -2.7536666770189122e-01  -3.5093989418711796e-01  -4.1976653286791310e-01  -4.8165904887160754e-01  -5.3662402528172193e-01  -5.8482670223682509e-01  -6.2655112410250857e-01  -6.6215866295830872e-01  -6.9204824762862482e-01  -7.1662126249329017e-01  -7.3625377177570872e-01  -7.5127750144900141e-01  -7.6197008955530632e-01  -7.6855365219053917e-01  -7.7119997245720251e-01  -7.7003969027727726e-01  -7.6517295141567210e-01  -7.5667898829955793e-01  -7.4462316000214079e-01  -7.2906077144900583e-01  -7.1003888965183626e-01  -6.8759733857936256e-01  -6.6177673343387522e-01  -6.3262309421130447e-01  -6.0025366990638618e-01  -5.6478627913771406e-01  -5.2687224226157858e-01  -4.8642732266608102e-01  -4.4765625872962866e-01  -4.0538318023131958e-01  -3.9007786182969634e-01  -3.4441903559350456e-01  -4.7753338398927581e-01  -4.6381438343523862e-01  -3.7372688341473337e-01  -3.2784007561657696e-01  -2.5880712912748333e-01  -1.8518476932044250e-01  -1.0777192680859034e-01  -2.8923826286441804e-02  4.9383836582147039e-02  1.2537062907701704e-01  1.9740321023574953e-01  2.6397312558414809e-01  3.2370078003113162e-01  3.7535534012855321e-01  4.1788309963052694e-01  4.5043819160638188e-01  4.7241091352331532e-01  4.8344961290094740e-01  4.8347340749224516e-01  4.7267378471325405e-01  4.5150462524013391e-01  4.2066105152955446e-01  3.8104888626548816e-01  3.3374701507739746e-01  2.7996567051585608e-01  2.2100340727872797e-01  1.5820539343998985e-01  9.2924712381748945e-02  2.6487711912385387e-02  -3.9836445374789059e-02  -1.0486227572873395e-01  -1.6751098684439211e-01  -2.2683032776739945e-01  -2.8201126455272102e-01  -3.3240119477059660e-01  -3.7751311783209257e-01  -4.1703024801941807e-01  -4.5080554520091770e-01  -4.7885604135936283e-01  -5.0135187757101940e-01  -5.1860035990208553e-01  -5.3102520522283680e-01  -5.3914149830857183e-01  -5.4352673015413100e-01  -5.4478879756185139e-01  -5.4353193767823660e-01  -5.4032232806136127e-01  -5.3565525738863973e-01  -5.2992641312906341e-01  -5.2340964349257690e-01  -5.1624369215279087e-01  -5.0842963900940419e-01  -4.9984033310127202e-01  -4.9024233907505449e-01  -4.7932925337411592e-01  -4.6677001084080361e-01  -4.5225498608287473e-01  -4.3560516112900499e-01  -4.1671232877161779e-01  -3.9616062046199813e-01  -3.7364182690153558e-01  -3.5402483125265077e-01  -3.2887289144318754e-01  -3.3653065172465535e-01  -2.7668496144233812e-01  -4.6381438343523862e-01  -4.4153593541361580e-01  -3.9869081027254594e-01  -3.3670920942035681e-01  -2.6441537730952669e-01  -1.8896718651112984e-01  -1.1028324158290544e-01  -3.0564364454213060e-02  4.8513864172545169e-02  1.2534150029372182e-01  1.9838797646506182e-01  2.6619753024582127e-01  3.2740440001835608e-01  3.8076132717215744e-01  4.2517624063876569e-01  4.5975167330878242e-01  4.8382169451343493e-01  4.9698184633801590e-01  4.9910838909474514e-01  4.9036448588318970e-01  4.7119227075653569e-01  4.4229127778180177e-01  4.0458496916214470e-01  3.5917822955086420e-01  3.0730928062545693e-01  2.5029969735737595e-01  1.8950584676587320e-01  1.2627444664404849e-01  6.1903999494828617e-02  -2.3870614852230174e-03  -6.5485478193501728e-02  -1.2640202452838306e-01  -1.8428484768662109e-01  -2.3842802187569631e-01  -2.8827583906256621e-01  -3.3342315010733242e-01  -3.7361186232260890e-01  -4.0872363881132134e-01  -4.3876884420716916e-01  -4.6387195782131158e-01  -4.8425381140983220e-01  -5.0021127443840008e-01  -5.1209512857295836e-01  -5.2028710633031539e-01  -5.2517709773679544e-01  -5.2714163144299819e-01  -5.2652463849087572e-01  -5.2362149209857756e-01  -5.1866708383178017e-01  -5.1182861581340322e-01  -5.0320351715753320e-01  -4.9282288680117370e-01  -4.8066063315813401e-01  -4.6664893621124204e-01  -4.5069916500133739e-01  -4.3273419468971175e-01  -4.1271266162769338e-01  -3.9072564291380540e-01  -3.6688004134131241e-01  -3.4201093790332115e-01  -3.1561036085976085e-01  -2.9333647914667016e-01  -2.6282003167076939e-01  -2.7256216928374788e-01  -1.7821226306361887e-01  -4.4153593541361580e-01  -4.1155418818798023e-01  -4.3438385514779898e-01  -3.5644742556076758e-01  -2.8895959346820421e-01  -2.1805733920056933e-01  -1.4594423355919256e-01  -7.3860394290615472e-02  -3.0335645325425304e-03  6.5271305899074067e-02  1.2983561871742291e-01  1.8950384030189021e-01  2.4320655410968234e-01  2.8998552187591775e-01  3.2902003078186770e-01  3.5965232897228233e-01  3.8140968493927124e-01  3.9402091767285891e-01  3.9742567505868281e-01  3.9177550816602058e-01  3.7742643067300585e-01  3.5492350321838462e-01  3.2497848168339261e-01  2.8844214699422044e-01  2.4627307489568792e-01  1.9950473577551717e-01  1.4921256741755981e-01  9.6482449616967086e-02  4.2381584647322737e-02  -1.2067495580388511e-02  -6.5909428957574123e-02  -1.1827481674088819e-01  -1.6839524487267080e-01  -2.1561449631711210e-01  -2.5939593176676096e-01  -2.9932604024441861e-01  -3.3511416046897446e-01  -3.6658849015161010e-01  -3.9368854186262653e-01  -4.1645437569777627e-01  -4.3501299321765147e-01  -4.4956244520640526e-01  -4.6035422546656307e-01  -4.6767466222011700e-01  -4.7182600450698248e-01  -4.7310804527847405e-01  -4.7180108103305035e-01  -4.6815112556861943e-01  -4.6235822814571509e-01  -4.5456878045883997e-01  -4.4487253793765558e-01  -4.3330501839911323e-01  -4.1985561720388925e-01  -4.0448207462794245e-01  -3.8712992801834001e-01  -3.6776312152434310e-01  -3.4638177038475854e-01  -3.2312024149660623e-01  -2.9808219074855713e-01  -2.7215639158308153e-01  -2.4443713252498037e-01  -2.2130442660535643e-01  -1.8631606280280541e-01  -1.9906451863414448e-01  -7.2512641820737439e-02  -4.1155418818798023e-01  -3.7502132349025569e-01  -4.7347110709574342e-01  -3.7820542146970187e-01  -3.1357440471062570e-01  -2.4387617815603541e-01  -1.7487657662757328e-01  -1.0656320943668571e-01  -3.9934646754416575e-02  2.4042250700924406e-02  8.4383793858491346e-02  1.4013421347723351e-01  1.9039501576313195e-01  2.3435273583440783e-01  2.7130516101999758e-01  3.0068554649996110e-01  3.2208352249200517e-01  3.3526105564962272e-01  3.4016217492721063e-01  3.3691542471720287e-01  3.2582877599919613e-01  3.0737715493368306e-01  2.8218354691172298e-01  2.5099492805653362e-01  2.1465475544270315e-01  1.7407367741913660e-01  1.3020017722734112e-01  8.3992482209928152e-02  3.6392841271947959e-02  -1.1695196316197488e-02  -5.9426104533772915e-02  -1.0602821202100388e-01  -1.5081606045702242e-01  -1.9319938296524677e-01  -2.3268881331362123e-01  -2.6889839023763928e-01  -3.0154497858406565e-01  -3.3044466792095500e-01  -3.5550635932561214e-01  -3.7672272407012380e-01  -3.9415893341781488e-01  -4.0793951973732323e-01  -4.1823396000699026e-01  -4.2524150455070958e-01  -4.2917599462183581e-01  -4.3025127942401453e-01  -4.2866803465210385e-01  -4.2460260211908474e-01  -4.1819859828395445e-01  -4.0956178723482561e-01  -3.9875877660718007e-01  -3.8581982218022365e-01  -3.7074597424126177e-01  -3.5352093881702162e-01  -3.3412609203723820e-01  -3.1256540457509774e-01  -2.8887237427630724e-01  -2.6320645682141519e-01  -2.3563558292877743e-01  -2.0706925149779684e-01  -1.7614592558995854e-01  -1.5005910703097208e-01  -1.0821104278533536e-01  -1.2223218714361521e-01  3.7726925624533912e-02  -3.7502132349025569e-01  -3.3334127882290954e-01  -5.1259995429710259e-01  -4.0021552482157058e-01  -3.3924418192902406e-01  -2.7102565944684925e-01  -2.0523309981316570e-01  -1.4068256794812384e-01  -7.8271581835459639e-02  -1.8688548536550345e-02  3.7291004120847675e-02  8.8904064952952166e-02  1.3542629174214293e-01  1.7620140940348783e-01  2.1066536714109366e-01  2.3836719737783349e-01  2.5898583993575636e-01  2.7234239702745539e-01  2.7840708078196930e-01  2.7730055292089806e-01  2.6928949507301930e-01  2.5477682576735711e-01  2.3428712044044256e-01  2.0844825358069821e-01  1.7797027638319743e-01  1.4362277135272447e-01  1.0621172540784396e-01  6.6556974472036498e-02  2.5470978981104054e-02  -1.6260412894923026e-02  -5.7894820419485613e-02  -9.8747518486227176e-02  -1.3820281929099845e-01  -1.7572259134332208e-01  -2.1085189440911081e-01  -2.4322179232683949e-01  -2.7254938274973090e-01  -2.9863521408156890e-01  -3.2135821242875234e-01  -3.4066842598929709e-01  -3.5657783084586625e-01  -3.6914966265458182e-01  -3.7848663800090049e-01  -3.8471865427737761e-01  -3.8799042131139910e-01  -3.8844968966175020e-01  -3.8623655279300595e-01  -3.8147448615490681e-01  -3.7426354308700738e-01  -3.6467627655332702e-01  -3.5275664733205492e-01  -3.3852229975147097e-01  -3.2197014967764193e-01  -3.0308579220994253e-01  -2.8185465340127158e-01  -2.5828248980022817e-01  -2.3239315550775752e-01  -2.0432625740845525e-01  -1.7406966707946994e-01  -1.4252471727202043e-01  -1.0784353522650467e-01  -7.8132226410378203e-02  -2.8562171657273039e-02  -4.3397909865299344e-02  1.4974649150309804e-01  -3.3334127882290954e-01  -2.8811579492806921e-01  -5.5020594543489731e-01  -4.2104636228133818e-01  -3.6434549962382529e-01  -2.9739148754899686e-01  -2.3429172586900471e-01  -1.7278276107650767e-01  -1.1374893245743378e-01  -5.7653224473502462e-02  -5.1089367063135551e-03  4.3278335933717736e-02  8.6924001669771017e-02  1.2529536493494273e-01  1.5793380180258026e-01  1.8447362571082415e-01  2.0465694053418354e-01  2.1834431391461973e-01  2.2552095555290702e-01  2.2629817585042084e-01  2.2091013305332702e-01  2.0970611324542149e-01  1.9313885749489021e-01  1.7174965403811213e-01  1.4615106566568958e-01  1.1700822299247257e-01  8.5019599151961819e-02  5.0898095482694215e-02  1.5353131368049045e-02  -2.0925715301118787e-02  -5.7283130933071309e-02  -9.3110292592482949e-02  -1.2785475058267270e-01  -1.6102789094995318e-01  -1.9220996467341667e-01  -2.2105270915387057e-01  -2.4727963117244500e-01  -2.7068405915692773e-01  -2.9112512893938425e-01  -3.0852190999434514e-01  -3.2284595249580705e-01  -3.3411257193584926e-01  -3.4237126169953302e-01  -3.4769564404401798e-01  -3.5017342172646532e-01  -3.4989678731643337e-01  -3.4695377476519312e-01  -3.4142097813990818e-01  -3.3335807069430101e-01  -3.2280443793489461e-01  -3.0977821050098375e-01  -2.9427784043605026e-01  -2.7628619389215725e-01  -2.5577748350915358e-01  -2.3272485407965340e-01  -2.0711679597646404e-01  -1.7894685153603140e-01  -1.4831404418495395e-01  -1.1510848360585943e-01  -8.0216645728665020e-02  -4.1301789540351713e-02  -7.4561897637524122e-03  5.0412450939430122e-02  3.5110136909572202e-02  2.6083146520257572e-01  -2.8811579492806921e-01  -2.4108286178906971e-01  -5.8552676955354144e-01  -4.3994720076260324e-01  -3.8814958480481393e-01  -3.2250196595162672e-01  -2.6195452677358627e-01  -2.0316588956014822e-01  -1.4709246708074103e-01  -9.4022856247310257e-02  -4.4447473798379072e-02  1.1558980166432053e-03  4.2318668257831073e-02  7.8613150499973292e-02  1.0967176812411367e-01  1.3520382597896413e-01  1.5500828300447300e-01  1.6898276947351770e-01  1.7712875960670582e-01  1.7955279743888944e-01  1.7646393164927965e-01  1.6816753111816368e-01  1.5505597315729350e-01  1.3759668748961035e-01  1.1631828366992694e-01  9.1795395853979833e-02  6.4633007151267546e-02  3.5450846175999869e-02  4.8684697227836873e-03  -2.6508547206689131e-02  -5.8100921726963087e-02  -8.9366236711776403e-02  -1.1980759397653742e-01  -1.4898024864414633e-01  -1.7649618906555423e-01  -2.0202665327333602e-01  -2.2530266033673202e-01  -2.4611362154456104e-01  -2.6430420915923952e-01  -2.7976963348817513e-01  -2.9244960573833639e-01  -3.0232122063666422e-01  -3.0939112686018078e-01  -3.1368728412440910e-01  -3.1525073470856130e-01  -3.1412771146104185e-01  -3.1036251059318726e-01  -3.0399143331077644e-01  -2.9503814891063695e-01  -2.8351068953064329e-01  -2.6940028913922937e-01  -2.5268212543623220e-01  -2.3331789339859374e-01  -2.1126048811248249e-01  -1.8645846692754167e-01  -1.5886913235305167e-01  -1.2844160049604020e-01  -9.5221210203295506e-02  -5.8992543323140127e-02  -2.0624615276473201e-02  2.2695495602755265e-02  6.0861961318616792e-02  1.2718247308766906e-01  1.1158960486520841e-01  3.6870957287046374e-01  -2.4108286178906971e-01  -1.9404992865007034e-01  -6.1819817572377223e-01  -4.5661012945248108e-01  -4.1022113258720977e-01  -3.4591464037158426e-01  -2.8779659659841189e-01  -2.3143867207391156e-01  -1.7794463835718938e-01  -1.2746749263934062e-01  -8.0410013292865401e-02  -3.7150180210728717e-02  1.9361229172245081e-03  3.6506649852663622e-02  6.6268448799954624e-02  9.0992515734470134e-02  1.1052462611200529e-01  1.2479302181595851e-01  1.3381278014228751e-01  1.3768696952113266e-01  1.3660463077642046e-01  1.3083586996611835e-01  1.2072433209667534e-01  1.0667755565029745e-01  8.9155655887520946e-02  6.8658949406233169e-02  4.5715019648304406e-02  2.0865795071699663e-02  -5.3449392780095337e-03  -3.2383161134477152e-02  -5.9735077376664364e-02  -8.6916178922551532e-02  -1.1347872890809133e-01  -1.3901757490972760e-01  -1.6317422963364223e-01  -1.8563922887960335e-01  -2.0615278517548230e-01  -2.2450384218353805e-01  -2.4052762232076916e-01  -2.5410186005332652e-01  -2.6514188370502295e-01  -2.7359482045209094e-01  -2.7943314755518939e-01  -2.8264792612150302e-01  -2.8324196644783861e-01  -2.8122328704077459e-01  -2.7659911141909738e-01  -2.6937072197981854e-01  -2.5952935926916509e-01  -2.4705338817673439e-01  -2.3190679809483164e-01  -2.1403912650466542e-01  -1.9338660194450355e-01  -1.6987488064753842e-01  -1.4342086835766685e-01  -1.1394310781917119e-01  -8.1339581110636203e-02  -4.5596249552459202e-02  -6.3930445394867206e-03  3.5420418899398023e-02  8.3104479770266859e-02  1.2556631271783081e-01  2.0015938390954127e-01  1.8439548289772334e-01  4.7113011623220064e-01  -1.9404992865007034e-01  -1.4882444475522988e-01  -6.4805259980991292e-01  -4.7101776547827867e-01  -4.3035684792979789e-01  -3.6740095982965493e-01  -3.1161823739991446e-01  -2.5747198400885207e-01  -2.0626716341731630e-01  -1.5804956837086939e-01  -1.1316351405667967e-01  -7.1910364563099932e-02  -3.4592814886370692e-02  -1.4837956146143258e-03  2.7185288683472864e-02  5.1236961110429267e-02  7.0556613733882681e-02  8.5098855715435226e-02  9.4891135890982373e-02  1.0003468724206523e-01  1.0070292793532561e-01  9.7137471115918902e-02  8.9642047876379249e-02  7.8574654217486883e-02  6.4338354496451935e-02  4.7371137492531232e-02  2.8135294807306761e-02  7.1067088408912201e-03  -1.5235539142314675e-02  -3.8418937840682892e-02  -6.1986396194563059e-02  -8.5503976535641235e-02  -1.0856734478791308e-01  -1.3080683663029358e-01  -1.5189108332481438e-01  -1.7152917852917443e-01  -1.8947142083298721e-01  -2.0550868354247759e-01  -2.1947052572841760e-01  -2.3122216247623928e-01  -2.4066048022393910e-01  -2.4770926795757453e-01  -2.5231391042106505e-01  -2.5443574835577776e-01  -2.5404638458252476e-01  -2.5112214277240380e-01  -2.4563894613642298e-01  -2.3756779181799245e-01  -2.2687102260563996e-01  -2.1349948933115073e-01  -1.9739069353695521e-01  -1.7846789311188602e-01  -1.5664002722266915e-01  -1.3180275839275077e-01  -1.0383818452523287e-01  -7.2623005468258339e-02  -3.8002407850470342e-02  9.8094600778381782e-05  4.2096519011160315e-02  8.7166838360488996e-02  1.3897080947376966e-01  1.8551302616056486e-01  2.6787343685661058e-01  2.5203071293100271e-01  5.6594537328632000e-01  -1.4882444475522988e-01  -1.0714440008788374e-01  -6.7500846899157962e-01  -4.8334097065866138e-01  -4.4850421072391056e-01  -3.8686202233765166e-01  -3.3330690272337515e-01  -2.8117606760694491e-01  -2.3201315699150438e-01  -1.8577653941260799e-01  -1.4277404775914340e-01  -1.0324858545049923e-01  -6.7445563731947031e-02  -3.5582003209185128e-02  -7.8388277863535062e-03  1.5649303404046612e-02  3.4801059731674522e-02  4.9593535887983244e-02  6.0065125362730190e-02  6.6316250498543158e-02  6.8508024674698409e-02  6.6858997332807368e-02  6.1640192084365844e-02  5.3168709406391332e-02  4.1800199277729329e-02  2.7920549784854785e-02  1.1937127805744815e-02  -5.7300809509161022e-03  -2.4657136143645231e-02  -4.4424320966794037e-02  -6.4623613409324876e-02  -8.4865253890451423e-02  -1.0478327427793654e-01  -1.2403988318811623e-01  -1.4232865464247013e-01  -1.5937649544140306e-01  -1.7494441119790413e-01  -1.8882711531366320e-01  -2.0085156491115985e-01  -2.1087453128031794e-01  -2.1877934092044599e-01  -2.2447194889007807e-01  -2.2787651782719018e-01  -2.2893069982311884e-01  -2.2758080655448215e-01  -2.2377707014618184e-01  -2.1746916389745227e-01  -2.0860214842014757e-01  -1.9711295734137363e-01  -1.8292751153747328e-01  -1.6595848272006503e-01  -1.4610370156921307e-01  -1.2324502536803246e-01  -9.7248009648601544e-02  -6.7959937924255379e-02  -3.5216174990508935e-02  1.1886439809015140e-03  4.1387060314239332e-02  8.5883699989158166e-02  1.3388293505398749e-01  1.8938360259597189e-01  2.3962931882096589e-01  3.2894273996974716e-01  3.1311030322691419e-01  6.5110772141907380e-01  -1.0714440008788374e-01  -7.0611535390159283e-02  -6.9900696083081326e-01  -4.9385981656217387e-01  -4.6469960022050938e-01  -4.0428593139233271e-01  -3.5282152544462492e-01  -3.0251904232156906e-01  -2.5518136465629104e-01  -2.1069142268151403e-01  -1.6933569193912798e-01  -1.3131189557906406e-01  -9.6820304733303011e-02  -6.6032510817364040e-02  -3.9087747569927049e-02  -1.6084830849173982e-02  2.9231132273625149e-03  1.7932557703931363e-02  2.8991725717114433e-02  3.6201069839019523e-02  3.9712097257408298e-02  3.9724674254403340e-02  3.6482948477590225e-02  3.0270112692669496e-02  2.1402237815864988e-02  1.0221449223210501e-02  -2.9112865520443767e-03  -1.7623495440