<?xml version="1.0"?>
<VTKFile type="UnstructuredGrid"  version="0.1"  >
<UnstructuredGrid>
<Piece  NumberOfPoints="4225" NumberOfCells="8192">
<Points>
<DataArray  type="Float64"  NumberOfComponents="3"  format="ascii">-1 -1 0  -0.96875 -1 0  -0.9375 -1 0  -0.90625 -1 0  -0.875 -1 0  -0.84375 -1 0  -0.8125 -1 0  -0.78125 -1 0  -0.75 -1 0  -0.71875 -1 0  -0.6875 -1 0  -0.65625 -1 0  -0.625 -1 0  -0.59375 -1 0  -0.5625 -1 0  -0.53125 -1 0  -0.5 -1 0  -0.46875 -1 0  -0.4375 -1 0  -0.40625 -1 0  -0.375 -1 0  -0.34375 -1 0  -0.3125 -1 0  -0.28125 -1 0  -0.25 -1 0  -0.21875 -1 0  -0.1875 -1 0  -0.15625 -1 0  -0.125 -1 0  -0.09375 -1 0  -0.0625 -1 0  -0.03125 -1 0  0 -1 0  0.03125 -1 0  0.0625 -1 0  0.09375 -1 0  0.125 -1 0  0.15625 -1 0  0.1875 -1 0  0.21875 -1 0  0.25 -1 0  0.28125 -1 0  0.3125 -1 0  0.34375 -1 0  0.375 -1 0  0.40625 -1 0  0.4375 -1 0  0.46875 -1 0  0.5 -1 0  0.53125 -1 0  0.5625 -1 0  0.59375 -1 0  0.625 -1 0  0.65625 -1 0  0.6875 -1 0  0.71875 -1 0  0.75 -1 0  0.78125 -1 0  0.8125 -1 0  0.84375 -1 0  0.875 -1 0  0.90625 -1 0  0.9375 -1 0  0.96875 -1 0  1 -1 0  -1 -0.96875 0  -0.96875 -0.96875 0  -0.9375 -0.96875 0  -0.90625 -0.96875 0  -0.875 -0.96875 0  -0.84375 -0.96875 0  -0.8125 -0.96875 0  -0.78125 -0.96875 0  -0.75 -0.96875 0  -0.71875 -0.96875 0  -0.6875 -0.96875 0  -0.65625 -0.96875 0  -0.625 -0.96875 0  -0.59375 -0.96875 0  -0.5625 -0.96875 0  -0.53125 -0.96875 0  -0.5 -0.96875 0  -0.46875 -0.96875 0  -0.4375 -0.96875 0  -0.40625 -0.96875 0  -0.375 -0.96875 0  -0.34375 -0.96875 0  -0.3125 -0.96875 0  -0.28125 -0.96875 0  -0.25 -0.96875 0  -0.21875 -0.96875 0  -0.1875 -0.96875 0  -0.15625 -0.96875 0  -0.125 -0.96875 0  -0.09375 -0.96875 0  -0.0625 -0.96875 0  -0.03125 -0.96875 0  0 -0.96875 0  0.03125 -0.96875 0  0.0625 -0.96875 0  0.09375 -0.96875 0  0.125 -0.96875 0  0.15625 -0.96875 0  0.1875 -0.96875 0  0.21875 -0.96875 0  0.25 -0.96875 0  0.28125 -0.96875 0  0.3125 -0.96875 0  0.34375 -0.96875 0  0.375 -0.96875 0  0.40625 -0.96875 0  0.4375 -0.96875 0  0.46875 -0.96875 0  0.5 -0.96875 0  0.53125 -0.96875 0  0.5625 -0.96875 0  0.59375 -0.96875 0  0.625 -0.96875 0  0.65625 -0.96875 0  0.6875 -0.96875 0  0.71875 -0.96875 0  0.75 -0.96875 0  0.78125 -0.96875 0  0.8125 -0.96875 0  0.84375 -0.96875 0  0.875 -0.96875 0  0.90625 -0.96875 0  0.9375 -0.96875 0  0.96875 -0.96875 0  1 -0.96875 0  -1 -0.9375 0  -0.96875 -0.9375 0  -0.9375 -0.9375 0  -0.90625 -0.9375 0  -0.875 -0.9375 0  -0.84375 -0.9375 0  -0.8125 -0.9375 0  -0.78125 -0.9375 0  -0.75 -0.9375 0  -0.71875 -0.9375 0  -0.6875 -0.9375 0  -0.65625 -0.9375 0  -0.625 -0.9375 0  -0.59375 -0.9375 0  -0.5625 -0.9375 0  -0.53125 -0.9375 0  -0.5 -0.9375 0  -0.46875 -0.9375 0  -0.4375 -0.9375 0  -0.40625 -0.9375 0  -0.375 -0.9375 0  -0.34375 -0.9375 0  -0.3125 -0.9375 0  -0.28125 -0.9375 0  -0.25 -0.9375 0  -0.21875 -0.9375 0  -0.1875 -0.9375 0  -0.15625 -0.9375 0  -0.125 -0.9375 0  -0.09375 -0.9375 0  -0.0625 -0.9375 0  -0.03125 -0.9375 0  0 -0.9375 0  0.03125 -0.9375 0  0.0625 -0.9375 0  0.09375 -0.9375 0  0.125 -0.9375 0  0.15625 -0.9375 0  0.1875 -0.9375 0  0.21875 -0.9375 0  0.25 -0.9375 0  0.28125 -0.9375 0  0.3125 -0.9375 0  0.34375 -0.9375 0  0.375 -0.9375 0  0.40625 -0.9375 0  0.4375 -0.9375 0  0.46875 -0.9375 0  0.5 -0.9375 0  0.53125 -0.9375 0  0.5625 -0.9375 0  0.59375 -0.9375 0  0.625 -0.9375 0  0.65625 -0.9375 0  0.6875 -0.9375 0  0.71875 -0.9375 0  0.75 -0.9375 0  0.78125 -0.9375 0  0.8125 -0.9375 0  0.84375 -0.9375 0  0.875 -0.9375 0  0.90625 -0.9375 0  0.9375 -0.9375 0  0.96875 -0.9375 0  1 -0.9375 0  -1 -0.90625 0  -0.96875 -0.90625 0  -0.9375 -0.90625 0  -0.90625 -0.90625 0  -0.875 -0.90625 0  -0.84375 -0.90625 0  -0.8125 -0.90625 0  -0.78125 -0.90625 0  -0.75 -0.90625 0  -0.71875 -0.90625 0  -0.6875 -0.90625 0  -0.65625 -0.90625 0  -0.625 -0.90625 0  -0.59375 -0.90625 0  -0.5625 -0.90625 0  -0.53125 -0.90625 0  -0.5 -0.90625 0  -0.46875 -0.90625 0  -0.4375 -0.90625 0  -0.40625 -0.90625 0  -0.375 -0.90625 0  -0.34375 -0.90625 0  -0.3125 -0.90625 0  -0.28125 -0.90625 0  -0.25 -0.90625 0  -0.21875 -0.90625 0  -0.1875 -0.90625 0  -0.15625 -0.90625 0  -0.125 -0.90625 0  -0.09375 -0.90625 0  -0.0625 -0.90625 0  -0.03125 -0.90625 0  0 -0.90625 0  0.03125 -0.90625 0  0.0625 -0.90625 0  0.09375 -0.90625 0  0.125 -0.90625 0  0.15625 -0.90625 0  0.1875 -0.90625 0  0.21875 -0.90625 0  0.25 -0.90625 0  0.28125 -0.90625 0  0.3125 -0.90625 0  0.34375 -0.90625 0  0.375 -0.90625 0  0.40625 -0.90625 0  0.4375 -0.90625 0  0.46875 -0.90625 0  0.5 -0.90625 0  0.53125 -0.90625 0  0.5625 -0.90625 0  0.59375 -0.90625 0  0.625 -0.90625 0  0.65625 -0.90625 0  0.6875 -0.90625 0  0.71875 -0.90625 0  0.75 -0.90625 0  0.78125 -0.90625 0  0.8125 -0.90625 0  0.84375 -0.90625 0  0.875 -0.90625 0  0.90625 -0.90625 0  0.9375 -0.90625 0  0.96875 -0.90625 0  1 -0.90625 0  -1 -0.875 0  -0.96875 -0.875 0  -0.9375 -0.875 0  -0.90625 -0.875 0  -0.875 -0.875 0  -0.84375 -0.875 0  -0.8125 -0.875 0  -0.78125 -0.875 0  -0.75 -0.875 0  -0.71875 -0.875 0  -0.6875 -0.875 0  -0.65625 -0.875 0  -0.625 -0.875 0  -0.59375 -0.875 0  -0.5625 -0.875 0  -0.53125 -0.875 0  -0.5 -0.875 0  -0.46875 -0.875 0  -0.4375 -0.875 0  -0.40625 -0.875 0  -0.375 -0.875 0  -0.34375 -0.875 0  -0.3125 -0.875 0  -0.28125 -0.875 0  -0.25 -0.875 0  -0.21875 -0.875 0  -0.1875 -0.875 0  -0.15625 -0.875 0  -0.125 -0.875 0  -0.09375 -0.875 0  -0.0625 -0.875 0  -0.03125 -0.875 0  0 -0.875 0  0.03125 -0.875 0  0.0625 -0.875 0  0.09375 -0.875 0  0.125 -0.875 0  0.15625 -0.875 0  0.1875 -0.875 0  0.21875 -0.875 0  0.25 -0.875 0  0.28125 -0.875 0  0.3125 -0.875 0  0.34375 -0.875 0  0.375 -0.875 0  0.40625 -0.875 0  0.4375 -0.875 0  0.46875 -0.875 0  0.5 -0.875 0  0.53125 -0.875 0  0.5625 -0.875 0  0.59375 -0.875 0  0.625 -0.875 0  0.65625 -0.875 0  0.6875 -0.875 0  0.71875 -0.875 0  0.75 -0.875 0  0.78125 -0.875 0  0.8125 -0.875 0  0.84375 -0.875 0  0.875 -0.875 0  0.90625 -0.875 0  0.9375 -0.875 0  0.96875 -0.875 0  1 -0.875 0  -1 -0.84375 0  -0.96875 -0.84375 0  -0.9375 -0.84375 0  -0.90625 -0.84375 0  -0.875 -0.84375 0  -0.84375 -0.84375 0  -0.8125 -0.84375 0  -0.78125 -0.84375 0  -0.75 -0.84375 0  -0.71875 -0.84375 0  -0.6875 -0.84375 0  -0.65625 -0.84375 0  -0.625 -0.84375 0  -0.59375 -0.84375 0  -0.5625 -0.84375 0  -0.53125 -0.84375 0  -0.5 -0.84375 0  -0.46875 -0.84375 0  -0.4375 -0.84375 0  -0.40625 -0.84375 0  -0.375 -0.84375 0  -0.34375 -0.84375 0  -0.3125 -0.84375 0  -0.28125 -0.84375 0  -0.25 -0.84375 0  -0.21875 -0.84375 0  -0.1875 -0.84375 0  -0.15625 -0.84375 0  -0.125 -0.84375 0  -0.09375 -0.84375 0  -0.0625 -0.84375 0  -0.03125 -0.84375 0  0 -0.84375 0  0.03125 -0.84375 0  0.0625 -0.84375 0  0.09375 -0.84375 0  0.125 -0.84375 0  0.15625 -0.84375 0  0.1875 -0.84375 0  0.21875 -0.84375 0  0.25 -0.84375 0  0.28125 -0.84375 0  0.3125 -0.84375 0  0.34375 -0.84375 0  0.375 -0.84375 0  0.40625 -0.84375 0  0.4375 -0.84375 0  0.46875 -0.84375 0  0.5 -0.84375 0  0.53125 -0.84375 0  0.5625 -0.84375 0  0.59375 -0.84375 0  0.625 -0.84375 0  0.65625 -0.84375 0  0.6875 -0.84375 0  0.71875 -0.84375 0  0.75 -0.84375 0  0.78125 -0.84375 0  0.8125 -0.84375 0  0.84375 -0.84375 0  0.875 -0.84375 0  0.90625 -0.84375 0  0.9375 -0.84375 0  0.96875 -0.84375 0  1 -0.84375 0  -1 -0.8125 0  -0.96875 -0.8125 0  -0.9375 -0.8125 0  -0.90625 -0.8125 0  -0.875 -0.8125 0  -0.84375 -0.8125 0  -0.8125 -0.8125 0  -0.78125 -0.8125 0  -0.75 -0.8125 0  -0.71875 -0.8125 0  -0.6875 -0.8125 0  -0.65625 -0.8125 0  -0.625 -0.8125 0  -0.59375 -0.8125 0  -0.5625 -0.8125 0  -0.53125 -0.8125 0  -0.5 -0.8125 0  -0.46875 -0.8125 0  -0.4375 -0.8125 0  -0.40625 -0.8125 0  -0.375 -0.8125 0  -0.34375 -0.8125 0  -0.3125 -0.8125 0  -0.28125 -0.8125 0  -0.25 -0.8125 0  -0.21875 -0.8125 0  -0.1875 -0.8125 0  -0.15625 -0.8125 0  -0.125 -0.8125 0  -0.09375 -0.8125 0  -0.0625 -0.8125 0  -0.03125 -0.8125 0  0 -0.8125 0  0.03125 -0.8125 0  0.0625 -0.8125 0  0.09375 -0.8125 0  0.125 -0.8125 0  0.15625 -0.8125 0  0.1875 -0.8125 0  0.21875 -0.8125 0  0.25 -0.8125 0  0.28125 -0.8125 0  0.3125 -0.8125 0  0.34375 -0.8125 0  0.375 -0.8125 0  0.40625 -0.8125 0  0.4375 -0.8125 0  0.46875 -0.8125 0  0.5 -0.8125 0  0.53125 -0.8125 0  0.5625 -0.8125 0  0.59375 -0.8125 0  0.625 -0.8125 0  0.65625 -0.8125 0  0.6875 -0.8125 0  0.71875 -0.8125 0  0.75 -0.8125 0  0.78125 -0.8125 0  0.8125 -0.8125 0  0.84375 -0.8125 0  0.875 -0.8125 0  0.90625 -0.8125 0  0.9375 -0.8125 0  0.96875 -0.8125 0  1 -0.8125 0  -1 -0.78125 0  -0.96875 -0.78125 0  -0.9375 -0.78125 0  -0.90625 -0.78125 0  -0.875 -0.78125 0  -0.84375 -0.78125 0  -0.8125 -0.78125 0  -0.78125 -0.78125 0  -0.75 -0.78125 0  -0.71875 -0.78125 0  -0.6875 -0.78125 0  -0.65625 -0.78125 0  -0.625 -0.78125 0  -0.59375 -0.78125 0  -0.5625 -0.78125 0  -0.53125 -0.78125 0  -0.5 -0.78125 0  -0.46875 -0.78125 0  -0.4375 -0.78125 0  -0.40625 -0.78125 0  -0.375 -0.78125 0  -0.34375 -0.78125 0  -0.3125 -0.78125 0  -0.28125 -0.78125 0  -0.25 -0.78125 0  -0.21875 -0.78125 0  -0.1875 -0.78125 0  -0.15625 -0.78125 0  -0.125 -0.78125 0  -0.09375 -0.78125 0  -0.0625 -0.78125 0  -0.03125 -0.78125 0  0 -0.78125 0  0.03125 -0.78125 0  0.0625 -0.78125 0  0.09375 -0.78125 0  0.125 -0.78125 0  0.15625 -0.78125 0  0.1875 -0.78125 0  0.21875 -0.78125 0  0.25 -0.78125 0  0.28125 -0.78125 0  0.3125 -0.78125 0  0.34375 -0.78125 0  0.375 -0.78125 0  0.40625 -0.78125 0  0.4375 -0.78125 0  0.46875 -0.78125 0  0.5 -0.78125 0  0.53125 -0.78125 0  0.5625 -0.78125 0  0.59375 -0.78125 0  0.625 -0.78125 0  0.65625 -0.78125 0  0.6875 -0.78125 0  0.71875 -0.78125 0  0.75 -0.78125 0  0.78125 -0.78125 0  0.8125 -0.78125 0  0.84375 -0.78125 0  0.875 -0.78125 0  0.90625 -0.78125 0  0.9375 -0.78125 0  0.96875 -0.78125 0  1 -0.78125 0  -1 -0.75 0  -0.96875 -0.75 0  -0.9375 -0.75 0  -0.90625 -0.75 0  -0.875 -0.75 0  -0.84375 -0.75 0  -0.8125 -0.75 0  -0.78125 -0.75 0  -0.75 -0.75 0  -0.71875 -0.75 0  -0.6875 -0.75 0  -0.65625 -0.75 0  -0.625 -0.75 0  -0.59375 -0.75 0  -0.5625 -0.75 0  -0.53125 -0.75 0  -0.5 -0.75 0  -0.46875 -0.75 0  -0.4375 -0.75 0  -0.40625 -0.75
[...]
<PointData  Scalars="f_15"> 
<DataArray  type="Float64"  Name="f_15"  format="ascii">-4.5551970910355705e-01  -4.5114336736294358e-01  -4.3818252249991430e-01  -4.1713525251402989e-01  -3.8881039218740288e-01  -3.5429645001762072e-01  -3.1491977744662680e-01  -2.7219359791863162e-01  -2.2775985455177847e-01  -1.8332611118492545e-01  -1.4059993165693019e-01  -1.0122325908593623e-01  -6.6709316916154129e-02  -3.8384456589527091e-02  -1.7337186603642692e-02  -4.3763417406134453e-03  0.0000000000000000e+00  -4.3763417406134453e-03  -1.7337186603642717e-02  -3.8384456589527112e-02  -6.6709316916154185e-02  -1.0122325908593628e-01  -1.4059993165693027e-01  -1.8332611118492553e-01  -2.2775985455177852e-01  -2.7219359791863162e-01  -3.1491977744662680e-01  -3.5429645001762083e-01  -3.8881039218740288e-01  -4.1713525251402989e-01  -4.3818252249991435e-01  -4.5114336736294358e-01  -4.5551970910355705e-01  -4.5114336736294358e-01  -4.3818252249991435e-01  -4.1713525251402989e-01  -3.8881039218740288e-01  -3.5429645001762083e-01  -3.1491977744662680e-01  -2.7219359791863162e-01  -2.2775985455177852e-01  -1.8332611118492553e-01  -1.4059993165693027e-01  -1.0122325908593628e-01  -6.6709316916154185e-02  -3.8384456589527112e-02  -1.7337186603642717e-02  -4.3763417406134453e-03  0.0000000000000000e+00  -4.3763417406134453e-03  -1.7337186603642692e-02  -3.8384456589527091e-02  -6.6709316916154129e-02  -1.0122325908593623e-01  -1.4059993165693019e-01  -1.8332611118492545e-01  -2.2775985455177847e-01  -2.7219359791863162e-01  -3.1491977744662680e-01  -3.5429645001762072e-01  -3.8881039218740288e-01  -4.1713525251402989e-01  -4.3818252249991430e-01  -4.5114336736294358e-01  -4.5551970910355705e-01  -4.5114336736294358e-01  -3.3216704611892828e-01  -3.0765442227786705e-01  -2.6553198498551389e-01  -2.1434524688641710e-01  -1.5552134713968682e-01  -9.1097831459559631e-02  -2.3134078666767335e-02  4.6284171792157623e-02  1.1507733932011111e-01  1.8121878029691507e-01  2.4279048454277002e-01  2.9804013150870762e-01  3.4543394054830395e-01  3.8370202696058742e-01  4.1187466312357773e-01  4.2930894318731627e-01  4.3570569492436234e-01  4.3111658715982099e-01  4.1594098894461951e-01  3.9091171277513409e-01  3.5706798094185804e-01  3.1571339138902482e-01  2.6835635927612383e-01  2.1663158470046279e-01  1.6220402057737965e-01  1.0666218488621844e-01  5.1414089016388761e-02  -2.3961723604419361e-03  -5.3933769136634481e-02  -1.0267097006730719e-01  -1.4834120127642050e-01  -1.9086584656853980e-01  -2.3027628646480269e-01  -2.6665050694616133e-01  -3.0007352087038680e-01  -3.3061994394933786e-01  -3.5835000393263777e-01  -3.8330941731557167e-01  -4.0552693132949380e-01  -4.2500850192373768e-01  -4.4173079791758152e-01  -4.5563843926761044e-01  -4.6664849819679605e-01  -4.7466385942239181e-01  -4.7959436371633385e-01  -4.8138269733990596e-01  -4.8003047861522297e-01  -4.7561976269767214e-01  -4.6832546086307819e-01  -4.5841564857366668e-01  -4.4623814591886529e-01  -4.3219514454026309e-01  -4.1670735891220378e-01  -4.0018256052291740e-01  -3.8297800501039841e-01  -3.6545335033094423e-01  -3.4792961974390818e-01  -3.3128984399483530e-01  -3.1620439900188485e-01  -3.0688611517043440e-01  -3.0113080566460204e-01  -3.1989641103214722e-01  -3.1158080909327279e-01  -4.5114336736294358e-01  -4.3818252249991430e-01  -3.1248067713101080e-01  -3.2340229486081679e-01  -2.9534134589362743e-01  -2.6106248454808395e-01  -2.1963225982479637e-01  -1.7289208463359057e-01  -1.2252117336245084e-01  -7.0264732267030422e-02  -1.7893209657270186e-02  3.2844557320303502e-02  8.0279772016313297e-02  1.2288446591572963e-01  1.5932789157147867e-01  1.8852434045291541e-01  2.0967057382244197e-01  2.2227224193938488e-01  2.2615919146719357e-01  2.2148925665001365e-01  2.0873977652431794e-01  1.8868530749048149e-01  1.6235955717587863e-01  1.3099932098948916e-01  9.5969370461144288e-02  5.8670142271686550e-02  2.0435344765218993e-02  -1.7567305957397389e-02  -5.4414589731357432e-02  -8.9468731354061290e-02  -1.2237160387528495e-01  -1.5299540370744008e-01  -1.8136511472286226e-01  -2.0757443205185117e-01  -2.3171537008731913e-01  -2.5383402931481713e-01  -2.7391536603306860e-01  -2.9189182765065896e-01  -3.0766682996318051e-01  -3.2114372358030041e-01  -3.3225322362202042e-01  -3.4097497297431767e-01  -3.4735136083780249e-01  -3.5149289280500834e-01  -3.5357524868880552e-01  -3.5382852057935882e-01  -3.5252001803074345e-01  -3.4993279892610568e-01  -3.4634314872065830e-01  -3.4200051664032088e-01  -3.3711332430985597e-01  -3.3184295830843036e-01  -3.2630658789786132e-01  -3.2058885261219816e-01  -3.1475815730590051e-01  -3.0889609650274874e-01  -3.0311312874488844e-01  -2.9765321209929951e-01  -2.9281534653579988e-01  -2.8958801721973848e-01  -2.8834725489130342e-01  -2.9332633774009853e-01  -2.9925138133893620e-01  -3.2841473799335669e-01  -3.0761284570427339e-01  -4.3818252249991430e-01  -4.1713525251402989e-01  -2.9991966269897624e-01  -3.0292517908609184e-01  -2.7174832349533112e-01  -2.3723544810922445e-01  -1.9541127511211570e-01  -1.4837651081670181e-01  -9.7609006374228882e-02  -4.4734140402865802e-02  8.5542458543453239e-03  6.0534669977920168e-02  1.0951982900539835e-01  1.5392651265501536e-01  1.9234503645992859e-01  2.2360126938140065e-01  2.4680700269082861e-01  2.6139661803724584e-01  2.6714914447040145e-01  2.6419503325142840e-01  2.5300649684346371e-01  2.3436968219525345e-01  2.0933679074801562e-01  1.7915734919609294e-01  1.4519064648653765e-01  1.0880589716563124e-01  7.1281748011314899e-02  3.3720149124975778e-02  -3.0110151335561220e-03  -3.8297686259536806e-02  -7.1761827885759896e-02  -1.0321495624495293e-01  -1.3259729591263184e-01  -1.5991737805180481e-01  -1.8520332293141595e-01  -2.0847155154350208e-01  -2.2971330478769691e-01  -2.4889552930112041e-01  -2.6597086478936510e-01  -2.8089146826329076e-01  -2.9362252989015014e-01  -3.0415293355430878e-01  -3.1250193556792000e-01  -3.1872183122817349e-01  -3.2289718773822756e-01  -3.2514158022222012e-01  -3.2559286872518883e-01  -3.2440808601309018e-01  -3.2175883279992179e-01  -3.1782788712099541e-01  -3.1280732861863253e-01  -3.0689834093207402e-01  -3.0031223240611815e-01  -2.9327384121276673e-01  -2.8602437777338263e-01  -2.7883811060265923e-01  -2.7201866004721209e-01  -2.6600594922910981e-01  -2.6122293145550779e-01  -2.5882314246786642e-01  -2.5881753218308506e-01  -2.6575230483148116e-01  -2.7078701646904207e-01  -3.0079339056029958e-01  -2.6011553192328773e-01  -4.1713525251402989e-01  -3.8881039218740288e-01  -3.0034713834817250e-01  -2.9374709794189424e-01  -2.6364107925744745e-01  -2.3048780744423233e-01  -1.9159350387992813e-01  -1.4879650745506240e-01  -1.0318996276691882e-01  -5.6098619670344727e-02  -8.9050475463554185e-03  3.6976601177229097e-02  8.0152734225683156e-02  1.1930975414678469e-01  1.5327558361743468e-01  1.8107682308278508e-01  2.0198632995379229e-01  2.1555760983866093e-01  2.2164365401880631e-01  2.2039872563457474e-01  2.1226205474560880e-01  1.9792310807277141e-01  1.7826924311092757e-01  1.5431868012750599e-01  1.2714439516263551e-01  9.7797253564322575e-02  6.7238097297586605e-02  3.6287745011969061e-02  5.6005671132966159e-03  -2.4337514551538382e-02  -5.3190582176010304e-02  -8.0741047103982500e-02  -1.0685297429270985e-01  -1.3143764517219073e-01  -1.5442636232063550e-01  -1.7575290466530422e-01  -1.9534564181645589e-01  -2.1312763932897127e-01  -2.2902213188158838e-01  -2.4296065131125733e-01  -2.5489147188349065e-01  -2.6478678730140975e-01  -2.7264770443892439e-01  -2.7850677195104734e-01  -2.8242811195435236e-01  -2.8450555063125810e-01  -2.8485926684079282e-01  -2.8363167997708894e-01  -2.8098333102770162e-01  -2.7708957109543575e-01  -2.7213867008238368e-01  -2.6633193597590937e-01  -2.5988567926773326e-01  -2.5303664833077050e-01  -2.4604682248700158e-01  -2.3922455341218782e-01  -2.3291531984832939e-01  -2.2762521095736249e-01  -2.2379086625482528e-01  -2.2268244361413037e-01  -2.2387658688371995e-01  -2.3243382391299525e-01  -2.3587231820621957e-01  -2.6740441881398741e-01  -2.0979396804715233e-01  -3.8881039218740288e-01  -3.5429645001762072e-01  -3.0926245507689626e-01  -2.8989947704214469e-01  -2.5795469651256353e-01  -2.2340469174289992e-01  -1.8479680945177612e-01  -1.4325829199113763e-01  -9.9647339765595158e-02  -5.5048184849143304e-02  -1.0607227405475518e-02  3.2482071488313925e-02  7.3027965253635405e-02  1.0989311374642613e-01  1.4205065779090967e-01  1.6863820078369715e-01  1.8900447687201893e-01  2.0274413306311923e-01  2.0971726456951587e-01  2.1005150359969757e-01  2.0412587175037994e-01  1.9253700088856582e-01  1.7605018959174423e-01  1.5553963588488209e-01  1.3192405857726308e-01  1.0610490087516522e-01  7.8914163442511273e-02  5.1077203934418350e-02  2.3193111323187660e-02  -4.2678941918770788e-03  -3.0953200758353696e-02  -5.6607444157945878e-02  -8.1048198318929024e-02  -1.0414223774748246e-01  -1.2578568600789947e-01  -1.4588984974426628e-01  -1.6437318881991736e-01  -1.8115869813241475e-01  -1.9617535696552849e-01  -2.0936197323785907e-01  -2.2067194277035609e-01  -2.3007769599301744e-01  -2.3757412571112035e-01  -2.4318060569275915e-01  -2.4694164135195587e-01  -2.4892632790292549e-01  -2.4922706026105476e-01  -2.4795791960900834e-01  -2.4525328108273398e-01  -2.4126703569414443e-01  -2.3617277668645573e-01  -2.3016525547683783e-01  -2.2346287126252842e-01  -2.1631313489831661e-01  -2.0899617423706043e-01  -2.0184699920097202e-01  -1.9523684409720915e-01  -1.8971651633498174e-01  -1.8570142626436884e-01  -1.8457623587875210e-01  -1.8541740452711203e-01  -1.9401475052126127e-01  -1.9403743658120137e-01  -2.2646498992991715e-01  -1.5077743360041904e-01  -3.5429645001762072e-01  -3.1491977744662680e-01  -3.2303813275033710e-01  -2.9050629306253795e-01  -2.5722253987292448e-01  -2.2155563476367995e-01  -1.8326702987803328e-01  -1.4304155197653001e-01  -1.0157755093890510e-01  -5.9735714757792123e-02  -1.8447634197620345e-02  2.1311651657429334e-02  5.8569916444992508e-02  9.2402620288904544e-02  1.2197916546682004e-01  1.4660651964656923e-01  1.6576632142186559e-01  1.7914188579292276e-01  1.8663225582326912e-01  1.8835171249149352e-01  1.8461447051031959e-01  1.7590589588938627e-01  1.6284299639661320e-01  1.4612829176804187e-01  1.2650190304862088e-01  1.0469685483746269e-01  8.1401825717039689e-02  5.7234253481032969e-02  3.2724936034514263e-02  8.3135875862438112e-03  -1.5646550031089789e-02  -3.8877755587587708e-02  -6.1163492496942973e-02  -8.2333446359017973e-02  -1.0225008902445396e-01  -1.2079820254480125e-01  -1.3787793727411143e-01  -1.5340132896998043e-01  -1.6729161544421023e-01  -1.7948450288735049e-01  -1.8993041242570308e-01  -1.9859696547184943e-01  -2.0547109707406885e-01  -2.1056053975437172e-01  -2.1389454430308666e-01  -2.1552399087903620e-01  -2.1552105495802465e-01  -2.1397878105395210e-01  -2.1101081531255825e-01  -2.0675166359457961e-01  -2.0135761849576950e-01  -1.9500877797588853e-01  -1.8791177492917319e-01  -1.8030566936003228e-01  -1.7246484258215497e-01  -1.6472372405356783e-01  -1.5744916315801158e-01  -1.5120885240164833e-01  -1.4636327402327678e-01  -1.4441286810121093e-01  -1.4387749545862688e-01  -1.5149728895288489e-01  -1.4691901315661099e-01  -1.8004448293507777e-01  -8.6382066404835062e-02  -3.1491977744662680e-01  -2.7219359791863162e-01  -3.3917851183752767e-01  -2.9379708487301526e-01  -2.5967059717045027e-01  -2.2286178327424080e-01  -1.8466745826878742e-01  -1.4536137011323419e-01  -1.0548738738174825e-01  -6.5722155448522127e-02  -2.6821061412896662e-02  1.0420409800662568e-02  4.5207145929802524e-02  7.6783240645780348e-02  1.0447059412202320e-01  1.2770443657056926e-01  1.4606324364087586e-01  1.5929033641044235e-01  1.6730503888184131e-01  1.7020217279845110e-01  1.6823984552469845e-01  1.6181673381608747e-01  1.5144121478412204e-01  1.3769557473133040e-01  1.2119895264308714e-01  1.0257260507273636e-01  8.2410482278631098e-02  6.1257152664386479e-02  3.9593950283895937e-02  1.7833111268595832e-02  -3.6812624558209507e-03  -2.4667165411919281e-02  -4.4895589562220270e-02  -6.4180296568081954e-02  -8.2368072991068617e-02  -9.9330592664532466e-02  -1.1495847556885321e-01  -1.2915764042028383e-01  -1.4184767320581659e-01  -1.5296170676797910e-01  -1.6244723916402548e-01  -1.7026735939437074e-01  -1.7640198149936054e-01  -1.8084883736809965e-01  -1.8362413760947616e-01  -1.8476293365227711e-01  -1.8431931647345864e-01  -1.8236662703591447e-01  -1.7899789243567993e-01  -1.7432668100804966e-01  -1.6848852831411165e-01  -1.6164327616991345e-01  -1.5397796622710880e-01  -1.4571301118671132e-01  -1.3710446868879941e-01  -1.2847130706400861e-01  -1.2015861236145216e-01  -1.1273408413560322e-01  -1.0648029702077676e-01  -1.0301783916427196e-01  -1.0026773802360588e-01  -1.0611551229292704e-01  -9.6056461293067427e-02  -1.2982303265305423e-01  -1.8454144827745843e-02  -2.7219359791863162e-01  -2.2775985455177847e-01  -3.5628943665416024e-01  -2.9857981258958283e-01  -2.6429483407905791e-01  -2.2661808604653882e-01  -1.8861391183852810e-01  -1.5015562902991425e-01  -1.1169353567669646e-01  -7.3759612070464761e-02  -3.6963429069373999e-02  -1.9498922846393197e-03  3.0636372828169531e-02  6.0185096552262944e-02  8.6152285509342633e-02  1.0808857599677815e-01  1.2566238409613967e-01  1.3867608332418990e-01  1.4707389939913199e-01  1.5094081986313224e-01  1.5049272895281407e-01  1.4605877607726078e-01  1.3805783949222250e-01  1.2697140959594269e-01  1.1331552992644586e-01  9.7614253383827065e-02  8.0376726488787673e-02  6.2079317809241523e-02  4.3153508717681692e-02  2.3979492056648413e-02  4.8848329669092857e-03  -1.3852906941659318e-02  -3.2000897015499692e-02  -4.9364435911570713e-02  -6.5780190066337313e-02  -8.1110130588415943e-02  -9.5236721284670103e-02  -1.0805953672934600e-01  -1.1949326636380002e-01  -1.2946682994904235e-01  -1.3792329801257744e-01  -1.4482025471871901e-01  -1.5013036003973113e-01  -1.5384189475276194e-01  -1.5595923879792986e-01  -1.5650324829611725e-01  -1.5551163622333275e-01  -1.5303943946277593e-01  -1.4915973121791487e-01  -1.4396470410475790e-01  -1.3756725490044935e-01  -1.3010341493077202e-01  -1.2173525253971468e-01  -1.1265725567221886e-01  -1.0309801903496371e-01  -9.3350057012141080e-02  -8.3724044125152830e-02  -7.4774499854319734e-02  -6.6689794172607716e-02  -6.1212337964305218e-02  -5.5642732998587636e-02  -5.9164116766716353e-02  -4.3089266112310003e-02  -7.7559627831493019e-02  5.0897570471604731e-02  -2.2775985455177847e-01  -1.8332611118492545e-01  -3.7369272668792791e-01  -3.0412128490321683e-01  -2.7030239083185326e-01  -2.3198202796704559e-01  -1.9422274344033291e-01  -1.5651348752080352e-01  -1.1925588274638969e-01  -8.2863120580529137e-02  -4.7826215180269839e-02  -1.4666001169796933e-02  1.6097160867029392e-02  4.3972589092086484e-02  6.8525526767433897e-02  8.9399859877174609e-02  1.0633619344201967e-01  1.1918421801330006e-01  1.2790852401213676e-01  1.3258753655847902e-01  1.3340576182912361e-01  1.3064020774628909e-01  1.2464230279663116e-01  1.1581707416197309e-01  1.0460143993143674e-01  9.1443461497909398e-02  7.6784065039033941e-02  6.1042352843046620e-02  4.4605067994267937e-02  2.7820293418016829e-02  1.0994990924173614e-02  -5.6043266404274912e-03  -2.1748686316316324e-02  -3.7242444452646878e-02  -5.1918613260205068e-02  -6.5634403784173956e-02  -7.8267417895151639e-02  -8.9712729879541750e-02  -9.9880871382995090e-02  -1.0869663302340934e-01  -1.1609847873731437e-01  -1.2203839443129147e-01  -1.2648196739287079e-01  -1.2940859605761901e-01  -1.3081173001439383e-01  -1.3069916405522458e-01  -1.2909339225244021e-01  -1.2603212242776032e-01  -1.2156901457001472e-01  -1.1577479084968610e-01  -1.0873878324908774e-01  -1.0057132838576659e-01  -9.1406564944298829e-02  -8.1408917538793743e-02  -7.0774220380699665e-02  -5.9761698594983204e-02  -4.8639912635548822e-02  -3.7940350138764449e-02  -2.7748518752593109e-02  -1.9925132732600624e-02  -1.1156907320035688e-02  -1.2016235342514388e-02  1.0271555101145914e-02  -2.5035776326489612e-02  1.1960077039449402e-01  -1.8332611118492545e-01  -1.4059993165693019e-01  -3.9102808641142817e-01  -3.0998734065901751e-01  -2.7714522143309706e-01  -2.3835809288234364e-01  -2.0089628391050082e-01  -1.6386197668611463e-01  -1.2764637166823778e-01  -9.2569100237803806e-02  -5.9027128691321845e-02  -2.7439358835265212e-02  1.7768216605940903e-03  2.8230248805122961e-02  5.1577372960914906e-02  7.1540362096652557e-02  8.7921154814418187e-02  1.0061079891680288e-01  1.0959362277162567e-01  1.1494608273589484e-01  1.1683056240788010e-01  1.1548477564434341e-01  1.1120781171218927e-01  1.0434407393967189e-01  9.5266494373683439e-02  8.4360322180629374e-02  7.2008622318900761e-02  5.8580294583261791e-02  4.4421095541036869e-02  2.9847762416615034e-02  1.5145039648313197e-02  5.6515131121062960e-04  -1.3670876266393206e-02  -2.7370689351220837e-02  -4.0367490190243195e-02  -5.2516831673022485e-02  -6.3693694262536432e-02  -7.3790054085361101e-02  -8.2713031809961687e-02  -9.0383591379460768e-02  -9.6735712227742077e-02  -1.0171590786014600e-01  -1.0528299596469898e-01  -1.0740801802231126e-01  -1.0807427802586386e-01  -1.0727746762200713e-01  -1.0502591850976978e-01  -1.0134101323674470e-01  -9.6257838856112485e-02  -8.9826173390944425e-02  -8.2111908654451560e-02  -7.3199286183158338e-02  -6.3193551136710102e-02  -5.2227375940980807e-02  -4.0461512689325130e-02  -2.8118273873189225e-02  -1.5420561275809435e-02  -2.8695256679898791e-03  9.5526490106218574e-03  1.9877742161082821e-02  3.1993093824072477e-02  3.3923256447676665e-02  6.2290945568869445e-02  2.5990360134391231e-02  1.8563015300317975e-01  -1.4059993165693019e-01  -1.0122325908593623e-01  -4.0800609331994075e-01  -3.1591969036299694e-01  -2.8442284440483839e-01  -2.4528239883792463e-01  -2.0814155310983473e-01  -1.7170322735370405e-01  -1.3638023521064085e-01  -1.0241774140897693e-01  -7.0138012399620447e-02  -3.9876084990403980e-02  -1.1963868779743810e-02  1.3290441837069573e-02  3.5619418253986568e-02  5.4810661826157674e-02  7.0717647940726824e-02  8.3266761601631323e-02  9.2460259162254560e-02  9.8375131166065721e-02  1.0115811673102793e-01  1.0101739845492545e-01  9.8211746992368079e-02  9.3038049754132254e-02  8.5818221168006026e-02  7.6886462370413952e-02  6.6577695328551123e-02  5.5217803160452286e-02  4.3116045873929781e-02  3.0559784236959320e-02  1.7811397978515459e-02  5.1071188799694496e-03  -7.3426293512378052e-03  -1.9351830489496756e-02  -3.0756858662890615e-02  -4.1414220029064384e-02  -5.1198348267034850e-02  -5.9999641542727813e-02  -6.7722842188111407e-02  -7.4285778260032589e-02  -7.9618437740589118e-02  -8.3662317888437254e-02  -8.6369985448778067e-02  -8.7704797803716802e-02  -8.7640748311366992e-02  -8.6162431428035688e-02  -8.3265138443425854e-02  -7.8955124429193072e-02  -7.3250100589798250e-02  -6.6180053634610256e-02  -5.7788480977043859e-02  -4.8134435972409392e-02  -3.7294994558443206e-02  -2.5371511808930186e-02  -1.2489927529206685e-02  1.1650677822447079e-03  1.5415860353204133e-02  2.9796412248263598e-02  4.4419674730686989e-02  5.7229020849694050e-02  7.2611131470012719e-02  7.7264854141559786e-02  1.1127116941518404e-01  7.3840415317374286e-02  2.4706869907423701e-01  -1.0122325908593623e-01  -6.6709316916154129e-02  -4.2429803541342065e-01  -3.2175816925881934e-01  -2.9181836570109615e-01  -2.5238405972885269e-01  -2.1556306309786857e-01  -1.7964320678325393e-01  -1.4508279358582499e-01  -1.1206616917591559e-01  -8.0856273397271028e-02  -5.1718744631067438e-02  -2.4914025841034932e-02  -6.8051917663037383e-04  2.0778572111699731e-02  3.9306284784344100e-02  5.4800131904407523e-02  6.7217314419313126e-02  7.6576745109962444e-02  8.2957924715369322e-02  8.6496884059478751e-02  8.7379622643525154e-02  8.5833613839658776e-02  8.2118076588977962e-02  7.6513742664742368e-02  6.9312829504241641e-02  6.0809832771128301e-02  5.129