<?xml version="1.0"?>
<VTKFile type="UnstructuredGrid"  version="0.1"  >
<UnstructuredGrid>
<Piece  NumberOfPoints="4225" NumberOfCells="8192">
<Points>
<DataArray  type="Float64"  NumberOfComponents="3"  format="ascii">-1 -1 0  -0.96875 -1 0  -0.9375 -1 0  -0.90625 -1 0  -0.875 -1 0  -0.84375 -1 0  -0.8125 -1 0  -0.78125 -1 0  -0.75 -1 0  -0.71875 -1 0  -0.6875 -1 0  -0.65625 -1 0  -0.625 -1 0  -0.59375 -1 0  -0.5625 -1 0  -0.53125 -1 0  -0.5 -1 0  -0.46875 -1 0  -0.4375 -1 0  -0.40625 -1 0  -0.375 -1 0  -0.34375 -1 0  -0.3125 -1 0  -0.28125 -1 0  -0.25 -1 0  -0.21875 -1 0  -0.1875 -1 0  -0.15625 -1 0  -0.125 -1 0  -0.09375 -1 0  -0.0625 -1 0  -0.03125 -1 0  0 -1 0  0.03125 -1 0  0.0625 -1 0  0.09375 -1 0  0.125 -1 0  0.15625 -1 0  0.1875 -1 0  0.21875 -1 0  0.25 -1 0  0.28125 -1 0  0.3125 -1 0  0.34375 -1 0  0.375 -1 0  0.40625 -1 0  0.4375 -1 0  0.46875 -1 0  0.5 -1 0  0.53125 -1 0  0.5625 -1 0  0.59375 -1 0  0.625 -1 0  0.65625 -1 0  0.6875 -1 0  0.71875 -1 0  0.75 -1 0  0.78125 -1 0  0.8125 -1 0  0.84375 -1 0  0.875 -1 0  0.90625 -1 0  0.9375 -1 0  0.96875 -1 0  1 -1 0  -1 -0.96875 0  -0.96875 -0.96875 0  -0.9375 -0.96875 0  -0.90625 -0.96875 0  -0.875 -0.96875 0  -0.84375 -0.96875 0  -0.8125 -0.96875 0  -0.78125 -0.96875 0  -0.75 -0.96875 0  -0.71875 -0.96875 0  -0.6875 -0.96875 0  -0.65625 -0.96875 0  -0.625 -0.96875 0  -0.59375 -0.96875 0  -0.5625 -0.96875 0  -0.53125 -0.96875 0  -0.5 -0.96875 0  -0.46875 -0.96875 0  -0.4375 -0.96875 0  -0.40625 -0.96875 0  -0.375 -0.96875 0  -0.34375 -0.96875 0  -0.3125 -0.96875 0  -0.28125 -0.96875 0  -0.25 -0.96875 0  -0.21875 -0.96875 0  -0.1875 -0.96875 0  -0.15625 -0.96875 0  -0.125 -0.96875 0  -0.09375 -0.96875 0  -0.0625 -0.96875 0  -0.03125 -0.96875 0  0 -0.96875 0  0.03125 -0.96875 0  0.0625 -0.96875 0  0.09375 -0.96875 0  0.125 -0.96875 0  0.15625 -0.96875 0  0.1875 -0.96875 0  0.21875 -0.96875 0  0.25 -0.96875 0  0.28125 -0.96875 0  0.3125 -0.96875 0  0.34375 -0.96875 0  0.375 -0.96875 0  0.40625 -0.96875 0  0.4375 -0.96875 0  0.46875 -0.96875 0  0.5 -0.96875 0  0.53125 -0.96875 0  0.5625 -0.96875 0  0.59375 -0.96875 0  0.625 -0.96875 0  0.65625 -0.96875 0  0.6875 -0.96875 0  0.71875 -0.96875 0  0.75 -0.96875 0  0.78125 -0.96875 0  0.8125 -0.96875 0  0.84375 -0.96875 0  0.875 -0.96875 0  0.90625 -0.96875 0  0.9375 -0.96875 0  0.96875 -0.96875 0  1 -0.96875 0  -1 -0.9375 0  -0.96875 -0.9375 0  -0.9375 -0.9375 0  -0.90625 -0.9375 0  -0.875 -0.9375 0  -0.84375 -0.9375 0  -0.8125 -0.9375 0  -0.78125 -0.9375 0  -0.75 -0.9375 0  -0.71875 -0.9375 0  -0.6875 -0.9375 0  -0.65625 -0.9375 0  -0.625 -0.9375 0  -0.59375 -0.9375 0  -0.5625 -0.9375 0  -0.53125 -0.9375 0  -0.5 -0.9375 0  -0.46875 -0.9375 0  -0.4375 -0.9375 0  -0.40625 -0.9375 0  -0.375 -0.9375 0  -0.34375 -0.9375 0  -0.3125 -0.9375 0  -0.28125 -0.9375 0  -0.25 -0.9375 0  -0.21875 -0.9375 0  -0.1875 -0.9375 0  -0.15625 -0.9375 0  -0.125 -0.9375 0  -0.09375 -0.9375 0  -0.0625 -0.9375 0  -0.03125 -0.9375 0  0 -0.9375 0  0.03125 -0.9375 0  0.0625 -0.9375 0  0.09375 -0.9375 0  0.125 -0.9375 0  0.15625 -0.9375 0  0.1875 -0.9375 0  0.21875 -0.9375 0  0.25 -0.9375 0  0.28125 -0.9375 0  0.3125 -0.9375 0  0.34375 -0.9375 0  0.375 -0.9375 0  0.40625 -0.9375 0  0.4375 -0.9375 0  0.46875 -0.9375 0  0.5 -0.9375 0  0.53125 -0.9375 0  0.5625 -0.9375 0  0.59375 -0.9375 0  0.625 -0.9375 0  0.65625 -0.9375 0  0.6875 -0.9375 0  0.71875 -0.9375 0  0.75 -0.9375 0  0.78125 -0.9375 0  0.8125 -0.9375 0  0.84375 -0.9375 0  0.875 -0.9375 0  0.90625 -0.9375 0  0.9375 -0.9375 0  0.96875 -0.9375 0  1 -0.9375 0  -1 -0.90625 0  -0.96875 -0.90625 0  -0.9375 -0.90625 0  -0.90625 -0.90625 0  -0.875 -0.90625 0  -0.84375 -0.90625 0  -0.8125 -0.90625 0  -0.78125 -0.90625 0  -0.75 -0.90625 0  -0.71875 -0.90625 0  -0.6875 -0.90625 0  -0.65625 -0.90625 0  -0.625 -0.90625 0  -0.59375 -0.90625 0  -0.5625 -0.90625 0  -0.53125 -0.90625 0  -0.5 -0.90625 0  -0.46875 -0.90625 0  -0.4375 -0.90625 0  -0.40625 -0.90625 0  -0.375 -0.90625 0  -0.34375 -0.90625 0  -0.3125 -0.90625 0  -0.28125 -0.90625 0  -0.25 -0.90625 0  -0.21875 -0.90625 0  -0.1875 -0.90625 0  -0.15625 -0.90625 0  -0.125 -0.90625 0  -0.09375 -0.90625 0  -0.0625 -0.90625 0  -0.03125 -0.90625 0  0 -0.90625 0  0.03125 -0.90625 0  0.0625 -0.90625 0  0.09375 -0.90625 0  0.125 -0.90625 0  0.15625 -0.90625 0  0.1875 -0.90625 0  0.21875 -0.90625 0  0.25 -0.90625 0  0.28125 -0.90625 0  0.3125 -0.90625 0  0.34375 -0.90625 0  0.375 -0.90625 0  0.40625 -0.90625 0  0.4375 -0.90625 0  0.46875 -0.90625 0  0.5 -0.90625 0  0.53125 -0.90625 0  0.5625 -0.90625 0  0.59375 -0.90625 0  0.625 -0.90625 0  0.65625 -0.90625 0  0.6875 -0.90625 0  0.71875 -0.90625 0  0.75 -0.90625 0  0.78125 -0.90625 0  0.8125 -0.90625 0  0.84375 -0.90625 0  0.875 -0.90625 0  0.90625 -0.90625 0  0.9375 -0.90625 0  0.96875 -0.90625 0  1 -0.90625 0  -1 -0.875 0  -0.96875 -0.875 0  -0.9375 -0.875 0  -0.90625 -0.875 0  -0.875 -0.875 0  -0.84375 -0.875 0  -0.8125 -0.875 0  -0.78125 -0.875 0  -0.75 -0.875 0  -0.71875 -0.875 0  -0.6875 -0.875 0  -0.65625 -0.875 0  -0.625 -0.875 0  -0.59375 -0.875 0  -0.5625 -0.875 0  -0.53125 -0.875 0  -0.5 -0.875 0  -0.46875 -0.875 0  -0.4375 -0.875 0  -0.40625 -0.875 0  -0.375 -0.875 0  -0.34375 -0.875 0  -0.3125 -0.875 0  -0.28125 -0.875 0  -0.25 -0.875 0  -0.21875 -0.875 0  -0.1875 -0.875 0  -0.15625 -0.875 0  -0.125 -0.875 0  -0.09375 -0.875 0  -0.0625 -0.875 0  -0.03125 -0.875 0  0 -0.875 0  0.03125 -0.875 0  0.0625 -0.875 0  0.09375 -0.875 0  0.125 -0.875 0  0.15625 -0.875 0  0.1875 -0.875 0  0.21875 -0.875 0  0.25 -0.875 0  0.28125 -0.875 0  0.3125 -0.875 0  0.34375 -0.875 0  0.375 -0.875 0  0.40625 -0.875 0  0.4375 -0.875 0  0.46875 -0.875 0  0.5 -0.875 0  0.53125 -0.875 0  0.5625 -0.875 0  0.59375 -0.875 0  0.625 -0.875 0  0.65625 -0.875 0  0.6875 -0.875 0  0.71875 -0.875 0  0.75 -0.875 0  0.78125 -0.875 0  0.8125 -0.875 0  0.84375 -0.875 0  0.875 -0.875 0  0.90625 -0.875 0  0.9375 -0.875 0  0.96875 -0.875 0  1 -0.875 0  -1 -0.84375 0  -0.96875 -0.84375 0  -0.9375 -0.84375 0  -0.90625 -0.84375 0  -0.875 -0.84375 0  -0.84375 -0.84375 0  -0.8125 -0.84375 0  -0.78125 -0.84375 0  -0.75 -0.84375 0  -0.71875 -0.84375 0  -0.6875 -0.84375 0  -0.65625 -0.84375 0  -0.625 -0.84375 0  -0.59375 -0.84375 0  -0.5625 -0.84375 0  -0.53125 -0.84375 0  -0.5 -0.84375 0  -0.46875 -0.84375 0  -0.4375 -0.84375 0  -0.40625 -0.84375 0  -0.375 -0.84375 0  -0.34375 -0.84375 0  -0.3125 -0.84375 0  -0.28125 -0.84375 0  -0.25 -0.84375 0  -0.21875 -0.84375 0  -0.1875 -0.84375 0  -0.15625 -0.84375 0  -0.125 -0.84375 0  -0.09375 -0.84375 0  -0.0625 -0.84375 0  -0.03125 -0.84375 0  0 -0.84375 0  0.03125 -0.84375 0  0.0625 -0.84375 0  0.09375 -0.84375 0  0.125 -0.84375 0  0.15625 -0.84375 0  0.1875 -0.84375 0  0.21875 -0.84375 0  0.25 -0.84375 0  0.28125 -0.84375 0  0.3125 -0.84375 0  0.34375 -0.84375 0  0.375 -0.84375 0  0.40625 -0.84375 0  0.4375 -0.84375 0  0.46875 -0.84375 0  0.5 -0.84375 0  0.53125 -0.84375 0  0.5625 -0.84375 0  0.59375 -0.84375 0  0.625 -0.84375 0  0.65625 -0.84375 0  0.6875 -0.84375 0  0.71875 -0.84375 0  0.75 -0.84375 0  0.78125 -0.84375 0  0.8125 -0.84375 0  0.84375 -0.84375 0  0.875 -0.84375 0  0.90625 -0.84375 0  0.9375 -0.84375 0  0.96875 -0.84375 0  1 -0.84375 0  -1 -0.8125 0  -0.96875 -0.8125 0  -0.9375 -0.8125 0  -0.90625 -0.8125 0  -0.875 -0.8125 0  -0.84375 -0.8125 0  -0.8125 -0.8125 0  -0.78125 -0.8125 0  -0.75 -0.8125 0  -0.71875 -0.8125 0  -0.6875 -0.8125 0  -0.65625 -0.8125 0  -0.625 -0.8125 0  -0.59375 -0.8125 0  -0.5625 -0.8125 0  -0.53125 -0.8125 0  -0.5 -0.8125 0  -0.46875 -0.8125 0  -0.4375 -0.8125 0  -0.40625 -0.8125 0  -0.375 -0.8125 0  -0.34375 -0.8125 0  -0.3125 -0.8125 0  -0.28125 -0.8125 0  -0.25 -0.8125 0  -0.21875 -0.8125 0  -0.1875 -0.8125 0  -0.15625 -0.8125 0  -0.125 -0.8125 0  -0.09375 -0.8125 0  -0.0625 -0.8125 0  -0.03125 -0.8125 0  0 -0.8125 0  0.03125 -0.8125 0  0.0625 -0.8125 0  0.09375 -0.8125 0  0.125 -0.8125 0  0.15625 -0.8125 0  0.1875 -0.8125 0  0.21875 -0.8125 0  0.25 -0.8125 0  0.28125 -0.8125 0  0.3125 -0.8125 0  0.34375 -0.8125 0  0.375 -0.8125 0  0.40625 -0.8125 0  0.4375 -0.8125 0  0.46875 -0.8125 0  0.5 -0.8125 0  0.53125 -0.8125 0  0.5625 -0.8125 0  0.59375 -0.8125 0  0.625 -0.8125 0  0.65625 -0.8125 0  0.6875 -0.8125 0  0.71875 -0.8125 0  0.75 -0.8125 0  0.78125 -0.8125 0  0.8125 -0.8125 0  0.84375 -0.8125 0  0.875 -0.8125 0  0.90625 -0.8125 0  0.9375 -0.8125 0  0.96875 -0.8125 0  1 -0.8125 0  -1 -0.78125 0  -0.96875 -0.78125 0  -0.9375 -0.78125 0  -0.90625 -0.78125 0  -0.875 -0.78125 0  -0.84375 -0.78125 0  -0.8125 -0.78125 0  -0.78125 -0.78125 0  -0.75 -0.78125 0  -0.71875 -0.78125 0  -0.6875 -0.78125 0  -0.65625 -0.78125 0  -0.625 -0.78125 0  -0.59375 -0.78125 0  -0.5625 -0.78125 0  -0.53125 -0.78125 0  -0.5 -0.78125 0  -0.46875 -0.78125 0  -0.4375 -0.78125 0  -0.40625 -0.78125 0  -0.375 -0.78125 0  -0.34375 -0.78125 0  -0.3125 -0.78125 0  -0.28125 -0.78125 0  -0.25 -0.78125 0  -0.21875 -0.78125 0  -0.1875 -0.78125 0  -0.15625 -0.78125 0  -0.125 -0.78125 0  -0.09375 -0.78125 0  -0.0625 -0.78125 0  -0.03125 -0.78125 0  0 -0.78125 0  0.03125 -0.78125 0  0.0625 -0.78125 0  0.09375 -0.78125 0  0.125 -0.78125 0  0.15625 -0.78125 0  0.1875 -0.78125 0  0.21875 -0.78125 0  0.25 -0.78125 0  0.28125 -0.78125 0  0.3125 -0.78125 0  0.34375 -0.78125 0  0.375 -0.78125 0  0.40625 -0.78125 0  0.4375 -0.78125 0  0.46875 -0.78125 0  0.5 -0.78125 0  0.53125 -0.78125 0  0.5625 -0.78125 0  0.59375 -0.78125 0  0.625 -0.78125 0  0.65625 -0.78125 0  0.6875 -0.78125 0  0.71875 -0.78125 0  0.75 -0.78125 0  0.78125 -0.78125 0  0.8125 -0.78125 0  0.84375 -0.78125 0  0.875 -0.78125 0  0.90625 -0.78125 0  0.9375 -0.78125 0  0.96875 -0.78125 0  1 -0.78125 0  -1 -0.75 0  -0.96875 -0.75 0  -0.9375 -0.75 0  -0.90625 -0.75 0  -0.875 -0.75 0  -0.84375 -0.75 0  -0.8125 -0.75 0  -0.78125 -0.75 0  -0.75 -0.75 0  -0.71875 -0.75 0  -0.6875 -0.75 0  -0.65625 -0.75 0  -0.625 -0.75 0  -0.59375 -0.75 0  -0.5625 -0.75 0  -0.53125 -0.75 0  -0.5 -0.75 0  -0.46875 -0.75 0  -0.4375 -0.75 0  -0.40625 -0.75
[...]
<PointData  Scalars="f_15"> 
<DataArray  type="Float64"  Name="f_15"  format="ascii">-4.2427331041852478e-01  -4.2019716407248225e-01  -4.0812536905250368e-01  -3.8852183767126641e-01  -3.6213992264596429e-01  -3.2999346617587116e-01  -2.9331783855519250e-01  -2.5352246358546177e-01  -2.1213665520926231e-01  -1.7075084683306288e-01  -1.3095547186333212e-01  -9.4279844242653468e-02  -6.2133387772560375e-02  -3.5751472747258227e-02  -1.6147941366021004e-02  -4.0761463460425636e-03  0.0000000000000000e+00  -4.0761463460425636e-03  -1.6147941366021032e-02  -3.5751472747258255e-02  -6.2133387772560417e-02  -9.4279844242653510e-02  -1.3095547186333226e-01  -1.7075084683306299e-01  -2.1213665520926239e-01  -2.5352246358546177e-01  -2.9331783855519244e-01  -3.2999346617587128e-01  -3.6213992264596429e-01  -3.8852183767126641e-01  -4.0812536905250374e-01  -4.2019716407248225e-01  -4.2427331041852478e-01  -4.2019716407248225e-01  -4.0812536905250374e-01  -3.8852183767126641e-01  -3.6213992264596429e-01  -3.2999346617587128e-01  -2.9331783855519244e-01  -2.5352246358546177e-01  -2.1213665520926239e-01  -1.7075084683306299e-01  -1.3095547186333226e-01  -9.4279844242653510e-02  -6.2133387772560417e-02  -3.5751472747258255e-02  -1.6147941366021032e-02  -4.0761463460425636e-03  0.0000000000000000e+00  -4.0761463460425636e-03  -1.6147941366021004e-02  -3.5751472747258227e-02  -6.2133387772560375e-02  -9.4279844242653468e-02  -1.3095547186333212e-01  -1.7075084683306288e-01  -2.1213665520926231e-01  -2.5352246358546177e-01  -2.9331783855519250e-01  -3.2999346617587116e-01  -3.6213992264596429e-01  -3.8852183767126641e-01  -4.0812536905250368e-01  -4.2019716407248225e-01  -4.2427331041852478e-01  -4.2019716407248225e-01  -3.6920468970761633e-01  -3.6534214864667658e-01  -3.5114112664274372e-01  -3.2873004061991057e-01  -2.9806960334278182e-01  -2.6034867800534606e-01  -2.1720561880710473e-01  -1.7047095668805315e-01  -1.2201211575606005e-01  -7.3636907272074587e-02  -2.7030838350091298e-02  1.6285396187153255e-02  5.4986209717503946e-02  8.7963596201030864e-02  1.1434402141242084e-01  1.3350078562528445e-01  1.4506232486926207e-01  1.4891667363749703e-01  1.4521216488704264e-01  1.3435434151895878e-01  1.1699877668847303e-01  9.4038954289130422e-02  6.6587127434656043e-02  3.5943883042001856e-02  3.5490030653009198e-03  -2.9096363131882953e-02  -6.0544422888128197e-02  -8.9549304859658299e-02  -1.1522424041501898e-01  -1.3715887440600880e-01  -1.5544380943025146e-01  -1.7057846215582395e-01  -1.8328945128945334e-01  -1.9432696665863622e-01  -2.0430828293261663e-01  -2.1364411487355570e-01  -2.2254131710120884e-01  -2.3104992390054033e-01  -2.3912008557988304e-01  -2.4664729107040709e-01  -2.5349988912797577e-01  -2.5953382857866614e-01  -2.6460308554805895e-01  -2.6857259659106986e-01  -2.7133617204579707e-01  -2.7283767891352245e-01  -2.7309076729093285e-01  -2.7219156675830558e-01  -2.7031973433984829e-01  -2.6772644291548570e-01  -2.6471254679421302e-01  -2.6160780527627536e-01  -2.5876742649003220e-01  -2.5661060220786502e-01  -2.5569732969533548e-01  -2.5684317589365829e-01  -2.6110096317146442e-01  -2.6971402809654993e-01  -2.8334788785963039e-01  -3.0250669525977164e-01  -3.2402642747957600e-01  -3.5147188139597985e-01  -3.6054152357807995e-01  -4.2019716407248225e-01  -4.0812536905250368e-01  -3.5005202418999781e-01  -3.6665975756075592e-01  -3.5641279390921310e-01  -3.3754427867253095e-01  -3.0984421145022012e-01  -2.7515922200913939e-01  -2.3536321840213545e-01  -1.9239415833612453e-01  -1.4814605261446026e-01  -1.0440438100629316e-01  -6.2804281617618168e-02  -2.4799912527740754e-02  8.3617838528766107e-03  3.5664997533402666e-02  5.6346096480090715e-02  6.9910297060995802e-02  7.6142470793201064e-02  7.5111044664865040e-02  6.7164621596863955e-02  5.2921546589456935e-02  3.3253044835725103e-02  9.2601605233595310e-03  -1.7757057296822854e-02  -4.6343499524758441e-02  -7.4956487604619426e-02  -1.0206973035912731e-01  -1.2631967703101324e-01  -1.4667851725251604e-01  -1.6260810638026030e-01  -1.7413231869920801e-01  -1.8178431424909863e-01  -1.8643728926416639e-01  -1.8907943171246652e-01  -1.9061000617503804e-01  -1.9170910275266900e-01  -1.9279307026104597e-01  -1.9403755641090117e-01  -1.9543865036907646e-01  -1.9688527433140493e-01  -1.9822465445331502e-01  -1.9931231919226686e-01  -2.0004508995613968e-01  -2.0037931791195415e-01  -2.0033745208578957e-01  -2.0000573598619439e-01  -1.9952524972104432e-01  -1.9907853706333783e-01  -1.9887422332596028e-01  -1.9913240285165221e-01  -2.0007382616783972e-01  -2.0191608485296564e-01  -2.0488157900465523e-01  -2.0921993937605343e-01  -2.1525353597192640e-01  -2.2342474996443934e-01  -2.3436175379284374e-01  -2.4878138128801078e-01  -2.6743581798723659e-01  -2.9019145097964461e-01  -3.1662652231766186e-01  -3.4202996478057690e-01  -3.6835208511089484e-01  -3.6936388611469423e-01  -4.0812536905250368e-01  -3.8852183767126641e-01  -3.2483210844395011e-01  -3.4269694261869499e-01  -3.3307528765640698e-01  -3.1686998224568347e-01  -2.9146629666469565e-01  -2.5877405553722532e-01  -2.2049175470153168e-01  -1.7850844546815603e-01  -1.3472318495279659e-01  -9.0955101681084172e-02  -4.8881353395698171e-02  -9.9965011763873384e-03  2.4415841797717365e-02  5.3304465230157937e-02  7.5867555208145351e-02  9.1565881125068430e-02  1.0013211720510846e-01  1.0157613986228409e-01  9.6186251398320224e-02  8.4526178706806884e-02  6.7426901324868616e-02  4.5970297745884986e-02  2.1457978975215130e-02  -4.6455713995127036e-03  -3.0807884101272082e-02  -5.5566870112571415e-02  -7.7699245215393398e-02  -9.6380207449062297e-02  -1.1128053491563793e-01  -1.2256015692260264e-01  -1.3075723972545439e-01  -1.3661472237967301e-01  -1.4090415051887983e-01  -1.4429316230210357e-01  -1.4727446416487061e-01  -1.5015030641549809e-01  -1.5305519265191608e-01  -1.5599828024891754e-01  -1.5891062150672922e-01  -1.6168770730212703e-01  -1.6422282624618398e-01  -1.6643054189294540e-01  -1.6826166508772672e-01  -1.6971176880160976e-01  -1.7082507719747533e-01  -1.7169507571500850e-01  -1.7246271803941879e-01  -1.7331293188014896e-01  -1.7447016529683976e-01  -1.7619438115944877e-01  -1.7877933876854790e-01  -1.8255740997906936e-01  -1.8791166124871408e-01  -1.9530444776769776e-01  -2.0529073955668298e-01  -2.1854504789097023e-01  -2.3566435698565547e-01  -2.5709808337895268e-01  -2.8201409214467960e-01  -3.0941812461452756e-01  -3.3335524054979443e-01  -3.5646228280100528e-01  -3.5141437445804158e-01  -3.8852183767126641e-01  -3.6213992264596429e-01  -3.0104210726087988e-01  -3.1709224534765046e-01  -3.0891870637931340e-01  -2.9437014767124847e-01  -2.7116476396405298e-01  -2.4108360229387030e-01  -2.0557254432710009e-01  -1.6638396031849126e-01  -1.2532357686480491e-01  -8.4152132817925093e-02  -4.4505264790702138e-02  -7.8400467287119396e-03  2.4600777273352029e-02  5.1813473928987878e-02  7.3051088438494852e-02  8.7836248613574253e-02  9.5969499204949599e-02  9.7532955937856242e-02  9.2888574237397936e-02  8.2669647495192095e-02  6.7762679221796213e-02  4.9274539024636077e-02  2.8477512014813414e-02  6.7249087657340533e-03  -1.4664526201939488e-02  -3.4542347871492823e-02  -5.2059045764738292e-02  -6.6748941806611284e-02  -7.8542426905608129e-02  -8.7701489761532872e-02  -9.4702873558683939e-02  -1.0010804422403947e-01  -1.0445419174973587e-01  -1.0818363809379496e-01  -1.1161238499717474e-01  -1.1492909653745320e-01  -1.1821329246912998e-01  -1.2146299202424829e-01  -1.2462464958063695e-01  -1.2762087278762527e-01  -1.3037355650346549e-01  -1.3282172356128882e-01  -1.3493433918337741e-01  -1.3671885874828643e-01  -1.3822630573778208e-01  -1.3955362593585227e-01  -1.4084395521599599e-01  -1.4228552554688018e-01  -1.4411005723101175e-01  -1.4659208050529327e-01  -1.5005058234275720e-01  -1.5485666889913380e-01  -1.6144512252961077e-01  -1.7033891483849883e-01  -1.8213934952906277e-01  -1.9752525143871444e-01  -2.1694991539536299e-01  -2.4058892587158526e-01  -2.6696273023921263e-01  -2.9478417714914223e-01  -3.1706925935277641e-01  -3.3804185526337327e-01  -3.2943633854906357e-01  -3.6213992264596429e-01  -3.2999346617587116e-01  -2.8107070149940494e-01  -2.9116644207662440e-01  -2.8183184116911297e-01  -2.6683897123038047e-01  -2.4449951106715531e-01  -2.1602182457660771e-01  -1.8256382444851890e-01  -1.4561967302743031e-01  -1.0679020359112032e-01  -6.7690955787878454e-02  -2.9860019227172335e-02  5.3093826784868150e-03  3.6617243995109607e-02  6.3090370058473372e-02  8.4005417675474647e-02  9.8904242443865711e-02  1.0760302612416801e-01  1.1019536928197590e-01  1.0704835050585437e-01  9.8789111172404756e-02  8.6277931233441740e-02  7.0562466185760037e-02  5.2808335395796789e-02  3.4205317702573741e-02  1.5856897377380628e-02  -1.3285501894507749e-03  -1.6719867859091922e-02  -2.9996706145260572e-02  -4.1127113259011354e-02  -5.0300207363722378e-02  -5.7837650631311910e-02  -6.4108515469608746e-02  -6.9463777688028278e-02  -7.4195761554920497e-02  -7.8520079437143828e-02  -8.2574221985566382e-02  -8.6426878253541992e-02  -9.0093150876419045e-02  -9.3552173096079438e-02  -9.6764648429582198e-02  -9.9688788521206315e-02  -1.0229380887912184e-01  -1.0457076748181310e-01  -1.0654083384757153e-01  -1.0826132429957280e-01  -1.0982985632270909e-01  -1.1138707544345477e-01  -1.1311846234727747e-01  -1.1525591969662292e-01  -1.1808037226315722e-01  -1.2192640909857519e-01  -1.2719254343450584e-01  -1.3435250282579383e-01  -1.4397720403086842e-01  -1.5670087025350854e-01  -1.7319600090663731e-01  -1.9375547548572478e-01  -2.1830812087301196e-01  -2.4476374716585361e-01  -2.7182870510353097e-01  -2.9156080839789006e-01  -3.1060416291528231e-01  -2.9803293977949513e-01  -3.2999346617587116e-01  -2.9331783855519250e-01  -2.6638045286874301e-01  -2.6821570129767291e-01  -2.5673802365123732e-01  -2.4033643881569941e-01  -2.1791321368849126e-01  -1.9032996079118378e-01  -1.5853087966993376e-01  -1.2374012680478633e-01  -8.7320672601208391e-02  -5.0688660539623058e-02  -1.5223332237360162e-02  1.7805409364851726e-02  4.7293563969360693e-02  7.2344460953542161e-02  9.2297493076848813e-02  1.0674644021416367e-01  1.1554873820830060e-01  1.1882582104177335e-01  1.1695331955715528e-01  1.1053870978536680e-01  1.0038331987763030e-01  8.7426246084158513e-02  7.2670515146049469e-02  5.7097026180586478e-02  4.1578032635203682e-02  2.6806080258339440e-02  1.3253064235583477e-02  1.1664827320286572e-03  -9.4008144116934245e-03  -1.8539785807256237e-02  -2.6428363509469859e-02  -3.3280686404260885e-02  -3.9308675856672547e-02  -4.4697173985480142e-02  -4.9590893441908174e-02  -5.4090539690610707e-02  -5.8255517055748336e-02  -6.2111082917908685e-02  -6.5658123091779638e-02  -6.8884101283448629e-02  -7.1774003236975858e-02  -7.4320511811352991e-02  -7.6532932133842935e-02  -7.8444728320379381e-02  -8.0119673789640952e-02  -8.1656821561407078e-02  -8.3194547848104303e-02  -8.4914162449070643e-02  -8.7043662374703734e-02  -8.9862910002828200e-02  -9.3710934999175252e-02  -9.8999095980754542e-02  -1.0622259840071249e-01  -1.1598121136136672e-01  -1.2892065078194789e-01  -1.4569101305992410e-01  -1.6641415929901379e-01  -1.9083140002455920e-01  -2.1632412630082873e-01  -2.4191311342841559e-01  -2.5868553517880200e-01  -2.7632982769758668e-01  -2.5974135663437120e-01  -2.9331783855519250e-01  -2.5352246358546177e-01  -2.5707101008321093e-01  -2.4944617545516284e-01  -2.3525640332400960e-01  -2.1672285115007192e-01  -1.9344963421872435e-01  -1.6605746268057434e-01  -1.3530180120772026e-01  -1.0217411593476387e-01  -6.7807575305316378e-02  -3.3402940759592867e-02  -1.5212991424339782e-04  3.0829930442824938e-02  5.8562840777326160e-02  8.2245691447420499e-02  1.0128961130888713e-01  1.1533858765586225e-01  1.2427906825207440e-01  1.2823818553235530e-01  1.2756964924446998e-01  1.2282592712221760e-01  1.1471572450472559e-01  1.0404750232759420e-01  9.1662812136620850e-02  7.8366910184210520e-02  6.4866755004792470e-02  5.1726389174118877e-02  3.9346075135935479e-02  2.7965630662096504e-02  1.7686719902624898e-02  8.5057646702313174e-03  3.4928009812844199e-04  -6.8942133225453756e-03  -1.3348683925321660e-02  -1.9132262459120027e-02  -2.4345646244796976e-02  -2.9066307305183173e-02  -3.3347450336229351e-02  -3.7220649958299643e-02  -4.0701109246873833e-02  -4.3794533659725875e-02  -4.6504744960331301e-02  -4.8841348815900895e-02  -5.0826993024352486e-02  -5.2503965750443776e-02  -5.3940066555454559e-02  -5.5233829075789956e-02  -5.6519325066199021e-02  -5.7970969296323956e-02  -5.9808916655652578e-02  -6.2306311940824977e-02  -6.5798895053723883e-02  -7.0700801525911863e-02  -7.7516096042991950e-02  -8.6858755159116494e-02  -9.9369415093383165e-02  -1.1566785344041566e-01  -1.3571032016234155e-01  -1.5913224923596625e-01  -1.8287638023974126e-01  -2.0655925405323045e-01  -2.2016883301321297e-01  -2.3696513575527722e-01  -2.1600733272611120e-01  -2.5352246358546177e-01  -2.1213665520926231e-01  -2.5230647142085749e-01  -2.3485694454881231e-01  -2.1798976455707048e-01  -1.9720536087411988e-01  -1.7283182110696410e-01  -1.4529622341214365e-01  -1.1522580972853291e-01  -8.3436990057221855e-02  -5.0869122847268085e-02  -1.8525893043869847e-02  1.2587047767673130e-02  4.1521375388964721e-02  6.7438577505130992e-02  8.9652946329714323e-02  1.0766365445099821e-01  1.2117520354826818e-01  1.3010587236549398e-01  1.3458375828972230e-01  1.3493004931378791e-01  1.3162949899526505e-01  1.2528915585188657e-01  1.1658809395703326e-01  1.0622300521254678e-01  9.4856094115072911e-02  8.3072013001655010e-02  7.1348983341181949e-02  6.0046223272593326e-02  4.9406395432177209e-02  3.9569267154353452e-02  3.0591814084800412e-02  2.2470420732113795e-02  1.5162044630548578e-02  8.6024567137848850e-03  2.7206844076195498e-03  -2.5506227476837112e-03  -7.2687634601330689e-03  -1.1478141363431395e-02  -1.5210441952843995e-02  -1.8487186812149860e-02  -2.1323949266473349e-02  -2.3735595425688594e-02  -2.5741985333437207e-02  -2.7373755026117070e-02  -2.8677915795506811e-02  -2.9723198269733159e-02  -3.0605180182263898e-02  -3.1451414982381548e-02  -3.2426972931252927e-02  -3.3740988540638873e-02  -3.5655507777648407e-02  -3.8496931927214949e-02  -4.2674071729272928e-02  -4.8689403353708249e-02  -5.7159085510462976e-02  -6.8706944793384031e-02  -8.3923393989670622e-02  -1.0262000255597829e-01  -1.2441850613150732e-01  -1.4590422315959792e-01  -1.6751013481594665e-01  -1.7792775389239732e-01  -1.9442748852100411e-01  -1.6873062398131233e-01  -2.1213665520926231e-01  -1.7075084683306288e-01  -2.5091518108193656e-01  -2.2382600107803399e-01  -2.0465153427967747e-01  -1.8178412450279841e-01  -1.5633183483243068e-01  -1.2855170858731871e-01  -9.8978653899807131e-02  -6.8291946728407701e-02  -3.7273208571342011e-02  -6.7573246479080296e-03  2.2418682759753287e-02  4.9464892577940005e-02  7.3683099591327739e-02  9.4504246442179279e-02  1.1151673504242547e-01  1.2448428764597379e-01  1.3335250818160235e-01  1.3824375934071945e-01  1.3944047970090737e-01  1.3735787760031892e-01  1.3250799104292485e-01  1.2545836423386270e-01  1.1678959466502772e-01  1.0705642014672291e-01  9.6756437978076065e-02  8.6309107389053730e-02  7.6045745403704193e-02  6.6209421617057396e-02  5.6962458134005030e-02  4.8398795053997183e-02  4.0558673636996341e-02  3.3443582923399447e-02  2.7030021448233250e-02  2.1281129555134486e-02  1.6155696748729052e-02  1.1614356134091643e-02  7.6230689113852930e-03  4.1541753786350152e-03  1.1854440937630441e-03  -1.3024151843560323e-03  -3.3292900738080733e-03  -4.9198603729210611e-03  -6.1081187431001691e-03  -6.9420373317796522e-03  -7.4882899904094510e-03  -7.8371056764058016e-03  -8.1074492527669073e-03  -8.4529794971311342e-03  -9.0693655490870113e-03  -1.0204313276092595e-02  -1.2170400554179540e-02  -1.5364944564691417e-02  -2.0280887737582673e-02  -2.7527854024971196e-02  -3.7707045606281089e-02  -5.1388532073873942e-02  -6.8271401645695409e-02  -8.8051517927543954e-02  -1.0701859523793048e-01  -1.2657206449826980e-01  -1.3387948840580710e-01  -1.5059530616527478e-01  -1.1977311091739845e-01  -1.7075084683306288e-01  -1.3095547186333212e-01  -2.5181918944934817e-01  -2.1560612202507226e-01  -1.9462185846734370e-01  -1.6996441259593739e-01  -1.4359990667213077e-01  -1.1561831444089676e-01  -8.6485025785455735e-02  -5.6769176665240395e-02  -2.7123680284878320e-02  1.7585432762732267e-03  2.9186576828025168e-02  5.4511893031347958e-02  7.7164935838271095e-02  9.6685814908068088e-02  1.1274736478443033e-01  1.2516924687823741e-01  1.3392228938953679e-01  1.3912283834692932e-01  1.4101759753977541e-01  1.3996023251821355e-01  1.3638186980127873e-01  1.3075834964820979e-01  1.2357750740762166e-01  1.1530966206090446e-01  1.0638386899355003e-01  9.7171456121204397e-02  8.7977196263408969e-02  7.9037445901684628e-02  7.0523891689523041e-02  6.2551241070131880e-02  5.5187194080862534e-02  4.8463241762730494e-02  4.2385125316545327e-02  3.6942115673208147e-02  3.2114569823043441e-02  2.7879499336397023e-02  2.4214105425384949e-02  2.1097418809486769e-02  1.8510294866853235e-02  1.6434087086019993e-02  1.4848319831407209e-02  1.3727663094052290e-02  1.3038430585276605e-02  1.2734754240696798e-02  1.2754466882466231e-02  1.3014617190683529e-02  1.3406383462624721e-02  1.3788935656930703e-02  1.3981630511978534e-02  1.3753182326431425e-02  1.2807804496255994e-02  1.0763952324846124e-02  7.1436177801748428e-03  1.3491469694553453e-03  -7.1976657121488935e-03  -1.9060377773134584e-02  -3.3862866656915680e-02  -5.1445754020835795e-02  -6.7844123749221510e-02  -8.5504614584518288e-02  -8.9855852503674463e-02  -1.0724761005719199e-01  -7.0937178284919800e-02  -1.3095547186333212e-01  -9.4279844242653468e-02  -2.5420563876978441e-01  -2.0956545102308932e-01  -1.8724771112577274e-01  -1.6109390402889415e-01  -1.3400082510747893e-01  -1.0589243554509106e-01  -7.7182151304461988e-02  -4.8346158053984220e-02  -1.9928759476060091e-02  7.4978482532628973e-03  3.3368115998648432e-02  5.7156126287682324e-02  7.8404974888144408e-02  9.6751058182702590e-02  1.1194192834885297e-01  1.2384670559153001e-01  1.3245848145323152e-01  1.3788869405912710e-01  1.4035408270102220e-01  1.4015746944344878e-01  1.3766420914845401e-01  1.3327655651820286e-01  1.2740834126209688e-01  1.2046215001826273e-01  1.1281071990133318e-01  1.0478356051617381e-01  9.6659080196002875e-02  8.8661852161138338e-02  8.0964186270809688e-02  7.3690925010087435e-02  6.6926309010223076e-02  6.0721839404093002e-02  5.5104217764642409e-02  5.0082661347162910e-02  4.5655100308404375e-02  4.1812980430335295e-02  3.8544565346162130e-02  3.5836784919504615e-02  3.3675769894662581e-02  3.2046276446280046e-02  3.0930218671350061e-02  3.0304512303431206e-02  3.0138388109712772e-02  3.0390265390243962e-02  3.1004188810442781e-02  3.1905718890941792e-02  3.2997026102879544e-02  3.4150714112024048e-02  3.5201743176211532e-02  3.5936081307356642e-02  3.6076126253932007e-02  3.5258406802488797e-02  3.3022652350560538e-02  2.8785599481671791e-02  2.1988261349436825e-02  1.2059033303600421e-02  -5.8711464057982022e-04  -1.5980580333766266e-02  -2.9927863582858236e-02  -4.5940725385101314e-02  -4.7542464130590524e-02  -6.6016045990737876e-02  -2.3899625750745571e-02  -9.4279844242653468e-02  -6.2133387772560375e-02  -2.5750445246304110e-01  -2.0523509862410466e-01  -1.8196176047449786e-01  -1.5455567626013536e-01  -1.2688545067351273e-01  -9.8711653979972738e-02  -7.0409509335036424e-02  -4.2374508093458274e-02  -1.5057417888260972e-02  1.1073558679665222e-02  3.5560710194304068e-02  5.7983546239474271e-02  7.7982070038621815e-02  9.5275604024810279e-02  1.0967619920162640e-01  1.2109595338696476e-01  1.2954792876435470e-01  1.3514081078073639e-01  1.3806791891086306e-01  1.3859166032491735e-01  1.3702488401875271e-01  1.3371083956633209e-01  1.2900346744788763e-01  1.2324957685168218e-01  1.1677410847767340e-01  1.0986921228542119e-01  1.