<?xml version="1.0"?>
<VTKFile type="UnstructuredGrid"  version="0.1"  >
<UnstructuredGrid>
<Piece  NumberOfPoints="4225" NumberOfCells="8192">
<Points>
<DataArray  type="Float64"  NumberOfComponents="3"  format="ascii">-1 -1 0  -0.96875 -1 0  -0.9375 -1 0  -0.90625 -1 0  -0.875 -1 0  -0.84375 -1 0  -0.8125 -1 0  -0.78125 -1 0  -0.75 -1 0  -0.71875 -1 0  -0.6875 -1 0  -0.65625 -1 0  -0.625 -1 0  -0.59375 -1 0  -0.5625 -1 0  -0.53125 -1 0  -0.5 -1 0  -0.46875 -1 0  -0.4375 -1 0  -0.40625 -1 0  -0.375 -1 0  -0.34375 -1 0  -0.3125 -1 0  -0.28125 -1 0  -0.25 -1 0  -0.21875 -1 0  -0.1875 -1 0  -0.15625 -1 0  -0.125 -1 0  -0.09375 -1 0  -0.0625 -1 0  -0.03125 -1 0  0 -1 0  0.03125 -1 0  0.0625 -1 0  0.09375 -1 0  0.125 -1 0  0.15625 -1 0  0.1875 -1 0  0.21875 -1 0  0.25 -1 0  0.28125 -1 0  0.3125 -1 0  0.34375 -1 0  0.375 -1 0  0.40625 -1 0  0.4375 -1 0  0.46875 -1 0  0.5 -1 0  0.53125 -1 0  0.5625 -1 0  0.59375 -1 0  0.625 -1 0  0.65625 -1 0  0.6875 -1 0  0.71875 -1 0  0.75 -1 0  0.78125 -1 0  0.8125 -1 0  0.84375 -1 0  0.875 -1 0  0.90625 -1 0  0.9375 -1 0  0.96875 -1 0  1 -1 0  -1 -0.96875 0  -0.96875 -0.96875 0  -0.9375 -0.96875 0  -0.90625 -0.96875 0  -0.875 -0.96875 0  -0.84375 -0.96875 0  -0.8125 -0.96875 0  -0.78125 -0.96875 0  -0.75 -0.96875 0  -0.71875 -0.96875 0  -0.6875 -0.96875 0  -0.65625 -0.96875 0  -0.625 -0.96875 0  -0.59375 -0.96875 0  -0.5625 -0.96875 0  -0.53125 -0.96875 0  -0.5 -0.96875 0  -0.46875 -0.96875 0  -0.4375 -0.96875 0  -0.40625 -0.96875 0  -0.375 -0.96875 0  -0.34375 -0.96875 0  -0.3125 -0.96875 0  -0.28125 -0.96875 0  -0.25 -0.96875 0  -0.21875 -0.96875 0  -0.1875 -0.96875 0  -0.15625 -0.96875 0  -0.125 -0.96875 0  -0.09375 -0.96875 0  -0.0625 -0.96875 0  -0.03125 -0.96875 0  0 -0.96875 0  0.03125 -0.96875 0  0.0625 -0.96875 0  0.09375 -0.96875 0  0.125 -0.96875 0  0.15625 -0.96875 0  0.1875 -0.96875 0  0.21875 -0.96875 0  0.25 -0.96875 0  0.28125 -0.96875 0  0.3125 -0.96875 0  0.34375 -0.96875 0  0.375 -0.96875 0  0.40625 -0.96875 0  0.4375 -0.96875 0  0.46875 -0.96875 0  0.5 -0.96875 0  0.53125 -0.96875 0  0.5625 -0.96875 0  0.59375 -0.96875 0  0.625 -0.96875 0  0.65625 -0.96875 0  0.6875 -0.96875 0  0.71875 -0.96875 0  0.75 -0.96875 0  0.78125 -0.96875 0  0.8125 -0.96875 0  0.84375 -0.96875 0  0.875 -0.96875 0  0.90625 -0.96875 0  0.9375 -0.96875 0  0.96875 -0.96875 0  1 -0.96875 0  -1 -0.9375 0  -0.96875 -0.9375 0  -0.9375 -0.9375 0  -0.90625 -0.9375 0  -0.875 -0.9375 0  -0.84375 -0.9375 0  -0.8125 -0.9375 0  -0.78125 -0.9375 0  -0.75 -0.9375 0  -0.71875 -0.9375 0  -0.6875 -0.9375 0  -0.65625 -0.9375 0  -0.625 -0.9375 0  -0.59375 -0.9375 0  -0.5625 -0.9375 0  -0.53125 -0.9375 0  -0.5 -0.9375 0  -0.46875 -0.9375 0  -0.4375 -0.9375 0  -0.40625 -0.9375 0  -0.375 -0.9375 0  -0.34375 -0.9375 0  -0.3125 -0.9375 0  -0.28125 -0.9375 0  -0.25 -0.9375 0  -0.21875 -0.9375 0  -0.1875 -0.9375 0  -0.15625 -0.9375 0  -0.125 -0.9375 0  -0.09375 -0.9375 0  -0.0625 -0.9375 0  -0.03125 -0.9375 0  0 -0.9375 0  0.03125 -0.9375 0  0.0625 -0.9375 0  0.09375 -0.9375 0  0.125 -0.9375 0  0.15625 -0.9375 0  0.1875 -0.9375 0  0.21875 -0.9375 0  0.25 -0.9375 0  0.28125 -0.9375 0  0.3125 -0.9375 0  0.34375 -0.9375 0  0.375 -0.9375 0  0.40625 -0.9375 0  0.4375 -0.9375 0  0.46875 -0.9375 0  0.5 -0.9375 0  0.53125 -0.9375 0  0.5625 -0.9375 0  0.59375 -0.9375 0  0.625 -0.9375 0  0.65625 -0.9375 0  0.6875 -0.9375 0  0.71875 -0.9375 0  0.75 -0.9375 0  0.78125 -0.9375 0  0.8125 -0.9375 0  0.84375 -0.9375 0  0.875 -0.9375 0  0.90625 -0.9375 0  0.9375 -0.9375 0  0.96875 -0.9375 0  1 -0.9375 0  -1 -0.90625 0  -0.96875 -0.90625 0  -0.9375 -0.90625 0  -0.90625 -0.90625 0  -0.875 -0.90625 0  -0.84375 -0.90625 0  -0.8125 -0.90625 0  -0.78125 -0.90625 0  -0.75 -0.90625 0  -0.71875 -0.90625 0  -0.6875 -0.90625 0  -0.65625 -0.90625 0  -0.625 -0.90625 0  -0.59375 -0.90625 0  -0.5625 -0.90625 0  -0.53125 -0.90625 0  -0.5 -0.90625 0  -0.46875 -0.90625 0  -0.4375 -0.90625 0  -0.40625 -0.90625 0  -0.375 -0.90625 0  -0.34375 -0.90625 0  -0.3125 -0.90625 0  -0.28125 -0.90625 0  -0.25 -0.90625 0  -0.21875 -0.90625 0  -0.1875 -0.90625 0  -0.15625 -0.90625 0  -0.125 -0.90625 0  -0.09375 -0.90625 0  -0.0625 -0.90625 0  -0.03125 -0.90625 0  0 -0.90625 0  0.03125 -0.90625 0  0.0625 -0.90625 0  0.09375 -0.90625 0  0.125 -0.90625 0  0.15625 -0.90625 0  0.1875 -0.90625 0  0.21875 -0.90625 0  0.25 -0.90625 0  0.28125 -0.90625 0  0.3125 -0.90625 0  0.34375 -0.90625 0  0.375 -0.90625 0  0.40625 -0.90625 0  0.4375 -0.90625 0  0.46875 -0.90625 0  0.5 -0.90625 0  0.53125 -0.90625 0  0.5625 -0.90625 0  0.59375 -0.90625 0  0.625 -0.90625 0  0.65625 -0.90625 0  0.6875 -0.90625 0  0.71875 -0.90625 0  0.75 -0.90625 0  0.78125 -0.90625 0  0.8125 -0.90625 0  0.84375 -0.90625 0  0.875 -0.90625 0  0.90625 -0.90625 0  0.9375 -0.90625 0  0.96875 -0.90625 0  1 -0.90625 0  -1 -0.875 0  -0.96875 -0.875 0  -0.9375 -0.875 0  -0.90625 -0.875 0  -0.875 -0.875 0  -0.84375 -0.875 0  -0.8125 -0.875 0  -0.78125 -0.875 0  -0.75 -0.875 0  -0.71875 -0.875 0  -0.6875 -0.875 0  -0.65625 -0.875 0  -0.625 -0.875 0  -0.59375 -0.875 0  -0.5625 -0.875 0  -0.53125 -0.875 0  -0.5 -0.875 0  -0.46875 -0.875 0  -0.4375 -0.875 0  -0.40625 -0.875 0  -0.375 -0.875 0  -0.34375 -0.875 0  -0.3125 -0.875 0  -0.28125 -0.875 0  -0.25 -0.875 0  -0.21875 -0.875 0  -0.1875 -0.875 0  -0.15625 -0.875 0  -0.125 -0.875 0  -0.09375 -0.875 0  -0.0625 -0.875 0  -0.03125 -0.875 0  0 -0.875 0  0.03125 -0.875 0  0.0625 -0.875 0  0.09375 -0.875 0  0.125 -0.875 0  0.15625 -0.875 0  0.1875 -0.875 0  0.21875 -0.875 0  0.25 -0.875 0  0.28125 -0.875 0  0.3125 -0.875 0  0.34375 -0.875 0  0.375 -0.875 0  0.40625 -0.875 0  0.4375 -0.875 0  0.46875 -0.875 0  0.5 -0.875 0  0.53125 -0.875 0  0.5625 -0.875 0  0.59375 -0.875 0  0.625 -0.875 0  0.65625 -0.875 0  0.6875 -0.875 0  0.71875 -0.875 0  0.75 -0.875 0  0.78125 -0.875 0  0.8125 -0.875 0  0.84375 -0.875 0  0.875 -0.875 0  0.90625 -0.875 0  0.9375 -0.875 0  0.96875 -0.875 0  1 -0.875 0  -1 -0.84375 0  -0.96875 -0.84375 0  -0.9375 -0.84375 0  -0.90625 -0.84375 0  -0.875 -0.84375 0  -0.84375 -0.84375 0  -0.8125 -0.84375 0  -0.78125 -0.84375 0  -0.75 -0.84375 0  -0.71875 -0.84375 0  -0.6875 -0.84375 0  -0.65625 -0.84375 0  -0.625 -0.84375 0  -0.59375 -0.84375 0  -0.5625 -0.84375 0  -0.53125 -0.84375 0  -0.5 -0.84375 0  -0.46875 -0.84375 0  -0.4375 -0.84375 0  -0.40625 -0.84375 0  -0.375 -0.84375 0  -0.34375 -0.84375 0  -0.3125 -0.84375 0  -0.28125 -0.84375 0  -0.25 -0.84375 0  -0.21875 -0.84375 0  -0.1875 -0.84375 0  -0.15625 -0.84375 0  -0.125 -0.84375 0  -0.09375 -0.84375 0  -0.0625 -0.84375 0  -0.03125 -0.84375 0  0 -0.84375 0  0.03125 -0.84375 0  0.0625 -0.84375 0  0.09375 -0.84375 0  0.125 -0.84375 0  0.15625 -0.84375 0  0.1875 -0.84375 0  0.21875 -0.84375 0  0.25 -0.84375 0  0.28125 -0.84375 0  0.3125 -0.84375 0  0.34375 -0.84375 0  0.375 -0.84375 0  0.40625 -0.84375 0  0.4375 -0.84375 0  0.46875 -0.84375 0  0.5 -0.84375 0  0.53125 -0.84375 0  0.5625 -0.84375 0  0.59375 -0.84375 0  0.625 -0.84375 0  0.65625 -0.84375 0  0.6875 -0.84375 0  0.71875 -0.84375 0  0.75 -0.84375 0  0.78125 -0.84375 0  0.8125 -0.84375 0  0.84375 -0.84375 0  0.875 -0.84375 0  0.90625 -0.84375 0  0.9375 -0.84375 0  0.96875 -0.84375 0  1 -0.84375 0  -1 -0.8125 0  -0.96875 -0.8125 0  -0.9375 -0.8125 0  -0.90625 -0.8125 0  -0.875 -0.8125 0  -0.84375 -0.8125 0  -0.8125 -0.8125 0  -0.78125 -0.8125 0  -0.75 -0.8125 0  -0.71875 -0.8125 0  -0.6875 -0.8125 0  -0.65625 -0.8125 0  -0.625 -0.8125 0  -0.59375 -0.8125 0  -0.5625 -0.8125 0  -0.53125 -0.8125 0  -0.5 -0.8125 0  -0.46875 -0.8125 0  -0.4375 -0.8125 0  -0.40625 -0.8125 0  -0.375 -0.8125 0  -0.34375 -0.8125 0  -0.3125 -0.8125 0  -0.28125 -0.8125 0  -0.25 -0.8125 0  -0.21875 -0.8125 0  -0.1875 -0.8125 0  -0.15625 -0.8125 0  -0.125 -0.8125 0  -0.09375 -0.8125 0  -0.0625 -0.8125 0  -0.03125 -0.8125 0  0 -0.8125 0  0.03125 -0.8125 0  0.0625 -0.8125 0  0.09375 -0.8125 0  0.125 -0.8125 0  0.15625 -0.8125 0  0.1875 -0.8125 0  0.21875 -0.8125 0  0.25 -0.8125 0  0.28125 -0.8125 0  0.3125 -0.8125 0  0.34375 -0.8125 0  0.375 -0.8125 0  0.40625 -0.8125 0  0.4375 -0.8125 0  0.46875 -0.8125 0  0.5 -0.8125 0  0.53125 -0.8125 0  0.5625 -0.8125 0  0.59375 -0.8125 0  0.625 -0.8125 0  0.65625 -0.8125 0  0.6875 -0.8125 0  0.71875 -0.8125 0  0.75 -0.8125 0  0.78125 -0.8125 0  0.8125 -0.8125 0  0.84375 -0.8125 0  0.875 -0.8125 0  0.90625 -0.8125 0  0.9375 -0.8125 0  0.96875 -0.8125 0  1 -0.8125 0  -1 -0.78125 0  -0.96875 -0.78125 0  -0.9375 -0.78125 0  -0.90625 -0.78125 0  -0.875 -0.78125 0  -0.84375 -0.78125 0  -0.8125 -0.78125 0  -0.78125 -0.78125 0  -0.75 -0.78125 0  -0.71875 -0.78125 0  -0.6875 -0.78125 0  -0.65625 -0.78125 0  -0.625 -0.78125 0  -0.59375 -0.78125 0  -0.5625 -0.78125 0  -0.53125 -0.78125 0  -0.5 -0.78125 0  -0.46875 -0.78125 0  -0.4375 -0.78125 0  -0.40625 -0.78125 0  -0.375 -0.78125 0  -0.34375 -0.78125 0  -0.3125 -0.78125 0  -0.28125 -0.78125 0  -0.25 -0.78125 0  -0.21875 -0.78125 0  -0.1875 -0.78125 0  -0.15625 -0.78125 0  -0.125 -0.78125 0  -0.09375 -0.78125 0  -0.0625 -0.78125 0  -0.03125 -0.78125 0  0 -0.78125 0  0.03125 -0.78125 0  0.0625 -0.78125 0  0.09375 -0.78125 0  0.125 -0.78125 0  0.15625 -0.78125 0  0.1875 -0.78125 0  0.21875 -0.78125 0  0.25 -0.78125 0  0.28125 -0.78125 0  0.3125 -0.78125 0  0.34375 -0.78125 0  0.375 -0.78125 0  0.40625 -0.78125 0  0.4375 -0.78125 0  0.46875 -0.78125 0  0.5 -0.78125 0  0.53125 -0.78125 0  0.5625 -0.78125 0  0.59375 -0.78125 0  0.625 -0.78125 0  0.65625 -0.78125 0  0.6875 -0.78125 0  0.71875 -0.78125 0  0.75 -0.78125 0  0.78125 -0.78125 0  0.8125 -0.78125 0  0.84375 -0.78125 0  0.875 -0.78125 0  0.90625 -0.78125 0  0.9375 -0.78125 0  0.96875 -0.78125 0  1 -0.78125 0  -1 -0.75 0  -0.96875 -0.75 0  -0.9375 -0.75 0  -0.90625 -0.75 0  -0.875 -0.75 0  -0.84375 -0.75 0  -0.8125 -0.75 0  -0.78125 -0.75 0  -0.75 -0.75 0  -0.71875 -0.75 0  -0.6875 -0.75 0  -0.65625 -0.75 0  -0.625 -0.75 0  -0.59375 -0.75 0  -0.5625 -0.75 0  -0.53125 -0.75 0  -0.5 -0.75 0  -0.46875 -0.75 0  -0.4375 -0.75 0  -0.40625 -0.75
[...]
<PointData  Scalars="f_15"> 
<DataArray  type="Float64"  Name="f_15"  format="ascii">-4.9294410136462063e-01  -4.8820821002231923e-01  -4.7418253364378127e-01  -4.5140607110654424e-01  -4.2075410909272637e-01  -3.8340458531270055e-01  -3.4079282101947928e-01  -2.9455636241789784e-01  -2.4647205068231026e-01  -1.9838773894672282e-01  -1.5215128034514130e-01  -1.0953951605191999e-01  -7.2189992271894224e-02  -4.1538030258076425e-02  -1.8761567720839267e-02  -4.7358913423013712e-03  0.0000000000000000e+00  -4.7358913423013712e-03  -1.8761567720839291e-02  -4.1538030258076460e-02  -7.2189992271894279e-02  -1.0953951605192004e-01  -1.5215128034514144e-01  -1.9838773894672296e-01  -2.4647205068231032e-01  -2.9455636241789784e-01  -3.4079282101947916e-01  -3.8340458531270066e-01  -4.2075410909272637e-01  -4.5140607110654424e-01  -4.7418253364378132e-01  -4.8820821002231923e-01  -4.9294410136462063e-01  -4.8820821002231923e-01  -4.7418253364378132e-01  -4.5140607110654424e-01  -4.2075410909272637e-01  -3.8340458531270066e-01  -3.4079282101947916e-01  -2.9455636241789784e-01  -2.4647205068231032e-01  -1.9838773894672296e-01  -1.5215128034514144e-01  -1.0953951605192004e-01  -7.2189992271894279e-02  -4.1538030258076460e-02  -1.8761567720839291e-02  -4.7358913423013712e-03  0.0000000000000000e+00  -4.7358913423013712e-03  -1.8761567720839267e-02  -4.1538030258076425e-02  -7.2189992271894224e-02  -1.0953951605191999e-01  -1.5215128034514130e-01  -1.9838773894672282e-01  -2.4647205068231026e-01  -2.9455636241789784e-01  -3.4079282101947928e-01  -3.8340458531270055e-01  -4.2075410909272637e-01  -4.5140607110654424e-01  -4.7418253364378127e-01  -4.8820821002231923e-01  -4.9294410136462063e-01  -4.8820821002231923e-01  -4.1336955135730497e-01  -3.0127644923056895e-01  -1.7340138699634008e-01  -3.8112266331351043e-02  1.0018343798883947e-01  2.3848500459284538e-01  3.7419510655055127e-01  5.0481926503799179e-01  6.2789788451334960e-01  7.4102674083501285e-01  8.4191542339198511e-01  9.2846075795807159e-01  9.9882283612693634e-01  1.0514961013335176e+00  1.0853699878644434e+00  1.0997753369533474e+00  1.0945136410785392e+00  1.0698676347627503e+00  1.0265925060707610e+00  9.6588844868029178e-01  8.8935593442521177e-01  7.9893631612178229e-01  6.9684072439908629e-01  5.8547099863779428e-01  4.6733631034938244e-01  3.4496940587934227e-01  2.2084595452827765e-01  9.7310300786018281e-02  -2.3489693297878440e-02  -1.3965648316313176e-01  -2.4958375761891544e-01  -3.5198345175444490e-01  -4.4589843961481301e-01  -5.3070119816883909e-01  -6.0607921813049781e-01  -6.7200868480214215e-01  -7.2871827140032996e-01  -7.7664554336968650e-01  -8.1638849552013293e-01  -8.4865512673100829e-01  -8.7421354839771614e-01  -8.9384514442555230e-01  -9.0830251697008091e-01  -9.1827369236852585e-01  -9.2435313464315616e-01  -9.2701988700666815e-01  -9.2662240446122479e-01  -9.2336973254651411e-01  -9.1732831443217044e-01  -9.0842422850844073e-01  -8.9645068216755808e-01  -8.8108139314562939e-01  -8.6189075521424341e-01  -8.3838267417023482e-01  -8.1003062680817695e-01  -7.7633489356094731e-01  -7.3687825142479946e-01  -6.9159848916055922e-01  -6.4010197692006687e-01  -5.8572198662519770e-01  -5.2213997393671352e-01  -4.8056735537822876e-01  -3.9980715568865660e-01  -4.8820821002231923e-01  -4.7418253364378127e-01  -4.5740150889881132e-01  -3.6032188320401820e-01  -2.6783698134443606e-01  -1.6963097727886692e-01  -6.9451227502535615e-02  3.0686095954564611e-02  1.2879793419774338e-01  2.2301311111540323e-01  3.1154108484280646e-01  3.9268405044539417e-01  4.6486896758923762e-01  5.2668763377175687e-01  5.7693756389371287e-01  6.1465908391576640e-01  6.3916600620646991e-01  6.5006791545596809e-01  6.4728325450063728e-01  6.3104251256491872e-01  6.0188167947014237e-01  5.6062606016778727e-01  5.0836527724681002e-01  4.4642014776960376e-01  3.7630272578149537e-01  2.9967064901272233e-01  2.1827745496979714e-01  1.3392037761913486e-01  4.8387496294416403e-02  -3.6594016854061336e-02  -1.1940666067621694e-01  -1.9858666239352762e-01  -2.7286172632977701e-01  -3.4118109480737702e-01  -4.0273691038931153e-01  -4.5697613327940451e-01  -5.0360279188815071e-01  -5.4257055910940877e-01  -5.7406624724704436e-01  -5.9848490329535831e-01  -6.1639775344668413e-01  -6.2851417307094037e-01  -6.3563939021289628e-01  -6.3862942732399219e-01  -6.3834523543002197e-01  -6.3560769319898258e-01  -6.3115553360950771e-01  -6.2560787157521813e-01  -6.1943328728376068e-01  -6.1292688439508414e-01  -6.0619691365422901e-01  -5.9916188806405546e-01  -5.9155918637459326e-01  -5.8296550798974334e-01  -5.7282975809298209e-01  -5.6051863429170090e-01  -5.4537614936710554e-01  -5.2680087187929248e-01  -5.0431923456695216e-01  -4.7788608254186205e-01  -4.4709556239957648e-01  -4.1587183433910502e-01  -3.7540029419606147e-01  -3.6718800701875604e-01  -2.7811202100072846e-01  -4.7418253364378127e-01  -4.5140607110654424e-01  -5.1132051884855989e-01  -3.8793177026597164e-01  -2.9386584757085138e-01  -1.9245104521088255e-01  -9.1451881163799986e-02  8.5601196112803177e-03  1.0593189268055682e-01  1.9911074089436545e-01  2.8655242241512691e-01  3.6675863613956128e-01  4.3831568366810192e-01  4.9993770827504458e-01  5.5051018070569091e-01  5.8913034642609119e-01  6.1514182430997966e-01  6.2816126701392061e-01  6.2809543411759372e-01  6.1514774715847687e-01  5.8981386962206273e-01  5.5286654874116914e-01  5.0533041626124531e-01  4.4844803710075626e-01  3.8363880052483129e-01  3.1245261151998976e-01  2.3652039724209481e-01  1.5750355730823234e-01  7.7044337892567705e-02  -3.2810191944645265e-03  -8.2004747715290413e-02  -1.5780429586593653e-01  -2.2953226346644859e-01  -2.9623877291160228e-01  -3.5718577519325506e-01  -4.1185311385671602e-01  -4.5993642628573278e-01  -5.0133728254980148e-01  -5.3614617537445097e-01  -5.6461929419038559e-01  -5.8715015405306481e-01  -6.0423741467128977e-01  -6.1645024157629702e-01  -6.2439273975524234e-01  -6.2866889056546293e-01  -6.2984946322061730e-01  -6.2844216904159667e-01  -6.2486629922435344e-01  -6.1943280569989778e-01  -6.1233074290817735e-01  -6.0362069702708310e-01  -5.9323584927727258e-01  -5.8099111730675346e-01  -5.6660093110993981e-01  -5.4970619524576181e-01  -5.2991134255649752e-01  -5.0683288565702300e-01  -4.8016378447731145e-01  -4.4972619847033329e-01  -4.1578019518838899e-01  -3.7799251491051311e-01  -3.4103412186325466e-01  -2.9280930635198410e-01  -2.8546793564290990e-01  -1.5626010892347320e-01  -4.5140607110654424e-01  -4.2075410909272637e-01  -5.6855566943059399e-01  -4.2242604166057268e-01  -3.3603677953860195e-01  -2.3950466121887740e-01  -1.4622478770994826e-01  -5.4706225529327246e-02  3.3603454149507016e-02  1.1757499384634043e-01  1.9600913532494946e-01  2.6773095778040951e-01  3.3163038686476592e-01  3.8670189145872996e-01  4.3208089164749458e-01  4.6707582349100063e-01  4.9119452156994103e-01  5.0416388729964057e-01  5.0594199882146018e-01  4.9672227868546498e-01  4.7692955140379772e-01  4.4720831362385371e-01  4.0840368761164419e-01  3.6153595314414677e-01  3.0776964847111987e-01  2.4837853401283272e-01  1.8470772962308982e-01  1.1813450228940557e-01  5.0029115992596171e-02  -1.8282800491168979e-02  -8.5555077964830042e-02  -1.5065180931123012e-01  -2.1257313413863163e-01  -2.7047520126591368e-01  -3.2368375075405004e-01  -3.7170102741112726e-01  -4.1420596293602230e-01  -4.5104787661555856e-01  -4.8223412652793468e-01  -5.0791242482395316e-01  -5.2834865333643100e-01  -5.4390123504883559e-01  -5.5499315403350713e-01  -5.6208285448334627e-01  -5.6563519310663013e-01  -5.6609370115170321e-01  -5.6385526659407559e-01  -5.5924835981690924e-01  -5.5251575242389217e-01  -5.4380263822374486e-01  -5.3315087623315827e-01  -5.2050002138623286e-01  -5.0569564071034656e-01  -4.8850543201847241e-01  -4.6864356327209111e-01  -4.4580378635120776e-01  -4.1970211374826910e-01  -3.9013225566586890e-01  -3.5699994286886211e-01  -3.2063578529674797e-01  -2.8052846276313292e-01  -2.4181563265261394e-01  -1.8893339215753924e-01  -1.8491401154997228e-01  -1.9758985238382397e-02  -4.2075410909272637e-01  -3.8340458531270055e-01  -6.2369483112576640e-01  -4.5549544011384335e-01  -3.7540646452572574e-01  -2.8077788324893921e-01  -1.9190681806306936e-01  -1.0530546657235040e-01  -2.2400174482658002e-02  5.6049527795557053e-02  1.2910450751510830e-01  1.9582878613073235e-01  2.5532485157268586e-01  3.0677326875036875e-01  3.4946702330960872e-01  3.8284078773985131e-01  4.0649479765037783e-01  4.2021262480823252e-01  4.2397243415786878e-01  4.1795127902247131e-01  4.0252248737177548e-01  3.7824619901436002e-01  3.4585364869629365e-01  3.0622579434724867e-01  2.6036733501036396e-01  2.0937710540072452e-01  1.5441614100886497e-01  9.6674589366130353e-02  3.7338793088624180e-02  -2.2440321599578449e-02  -8.1576397474065782e-02  -1.3907339897974721e-01  -1.9404713732545428e-01  -2.4574194136606398e-01  -2.9354205276842738e-01  -3.3697749099913715e-01  -3.7572441673238649e-01  -4.0960012654933653e-01  -4.3855312294284032e-01  -4.6264875180279963e-01  -4.8205120133384849e-01  -4.9700261759178110e-01  -5.0780035365076615e-01  -5.1477325239465288e-01  -5.1825807799633627e-01  -5.1857699266351598e-01  -5.1601714262599918e-01  -5.1081314949764900e-01  -5.0313342081106904e-01  -4.9307088562563028e-01  -4.8063885697437853e-01  -4.6577242347568709e-01  -4.4833588100041388e-01  -4.2813642451773076e-01  -4.0494447649987625e-01  -3.7852074367542210e-01  -3.4865037140778915e-01  -3.1518644712872951e-01  -2.7806335255009107e-01  -2.3761356246765572e-01  -1.9307521252773377e-01  -1.5000361503325679e-01  -8.9464998124748313e-02  -8.5600056987314030e-02  1.1678667029154667e-01  -3.8340458531270055e-01  -3.4079282101947928e-01  -6.7444980287777268e-01  -4.8561836998946711e-01  -4.1280333821532722e-01  -3.2057223293983178e-01  -2.3624302782392662e-01  -1.5444283022512548e-01  -7.6699704926108558e-02  -3.4704284231134382e-03  6.4514666691031675e-02  1.2652433466332227e-01  1.8184723324775054e-01  2.2983054574239803e-01  2.6991128531490782e-01  3.0164228450554692e-01  3.2471286435484303e-01  3.3896412770000345e-01  3.4439851778616565e-01  3.4118363891136283e-01  3.2965022875218508e-01  3.1028463084026126e-01  2.8371603682482438e-01  2.5069920748712199e-01  2.1209329889562703e-01  1.6883777495523075e-01  1.2192626145796744e-01  7.2379433926072351e-02  2.1217877920257398e-02  -3.0564038116612579e-02  -8.2022410472299009e-02  -1.3228532678623353e-01  -1.8057099543584978e-01  -2.2620194170265423e-01  -2.6861487414980129e-01  -3.0736604629646769e-01  -3.4213203531866915e-01  -3.7270613914117778e-01  -3.9899062405469909e-01  -4.2098535493903710e-01  -4.3877329885760313e-01  -4.5250368949021236e-01  -4.6237351089647277e-01  -4.6860822473060743e-01  -4.7144246481680463e-01  -4.7110165013088406e-01  -4.6778519385299777e-01  -4.6165218049725049e-01  -4.5281005848405798e-01  -4.4130707203373665e-01  -4.2712879529824410e-01  -4.1019929329819643e-01  -3.9038707291850305e-01  -3.6751614071381883e-01  -3.4138210451342632e-01  -3.1177333365728710e-01  -2.7849685347395492e-01  -2.4141094317699952e-01  -2.0042011893642350e-01  -1.5580086893642936e-01  -1.0650189647512320e-01  -5.8485555063958548e-02  1.0421804038116574e-02  1.4986312164220125e-02  2.5407760448458971e-01  -3.4079282101947928e-01  -2.9455636241789784e-01  -7.1989242586404234e-01  -5.1184716332839053e-01  -4.4698666640083567e-01  -3.5721879857538902e-01  -2.7708527259497828e-01  -1.9948882716937741e-01  -1.2615912509172958e-01  -5.7322072943276202e-02  6.4449461566121920e-03  6.4569785506027016e-02  1.1648811285330736e-01  1.6167976631557268e-01  1.9969665922761615e-01  2.3018560216998846e-01  2.5290637491788237e-01  2.6774497482971710e-01  2.7472199160116756e-01  2.7399605749344980e-01  2.6586245285646459e-01  2.5074705524154062e-01  2.2919598788069692e-01  2.0186144560642405e-01  1.6948431751544416e-01  1.3287431484476653e-01  9.2888396456434749e-02  5.0408315627127991e-02  6.3181229850646633e-03  -3.8517562659607395e-02  -8.3273761781264666e-02  -1.2718314326008476e-01  -1.6955126500067780e-01  -2.0976859005365150e-01  -2.4731896252017493e-01  -2.8178436205546731e-01  -3.1284590612404256e-01  -3.4028120175505100e-01  -3.6395829776115496e-01  -3.8382659053425455e-01  -3.9990517059806829e-01  -4.1226915279455767e-01  -4.2103463524593915e-01  -4.2634293880106416e-01  -4.2834483249766175e-01  -4.2718541120728953e-01  -4.2299030983159425e-01  -4.1585383573507889e-01  -4.0582960796066575e-01  -3.9292413723370140e-01  -3.7709377352393358e-01  -3.5824526817462171e-01  -3.3624016081704644e-01  -3.1090300973023594e-01  -2.8203340133872257e-01  -2.4942136249848720e-01  -2.1286576344803540e-01  -1.7219738555892045e-01  -1.2725890508517021e-01  -7.8243489651222659e-02  -2.3806710395254976e-02  2.9685898840640653e-02  1.0749250019030092e-01  1.1356873566841638e-01  3.8848207914038663e-01  -2.9455636241789784e-01  -2.4647205068231026e-01  -7.5980086867031005e-01  -5.3391995649536406e-01  -4.7752680778528372e-01  -3.9040948419677490e-01  -3.1437331282521630e-01  -2.4067657040619925e-01  -1.7131978238133064e-01  -1.0635826981480358e-01  -4.6264595970747384e-02  8.5089537762743396e-03  5.7512634102107600e-02  1.0033208790933308e-01  1.3661214853188550e-01  1.6607636067945861e-01  1.8854241627839297e-01  2.0393342665175612e-01  2.1228509769718881e-01  2.1374873152202678e-01  2.0859023150153391e-01  1.9718519484700389e-01  1.8001048400002584e-01  1.5763258646311301e-01  1.3069335503285776e-01  9.9893624144606438e-02  6.5975425307640723e-02  2.9703408458593816e-02  -8.1537848350756569e-03  -4.6841584085979708e-02  -8.5636320957087439e-02  -1.2386029611580715e-01  -1.6089458984980509e-01  -1.9618923975684668e-01  -2.2927052212423030e-01  -2.5974516115502444e-01  -2.8730146079150853e-01  -3.1170740032732080e-01  -3.3280592824996569e-01  -3.5050770182313556e-01  -3.6478170505820195e-01  -3.7564414595506107e-01  -3.8314620212300254e-01  -3.8736110095645909e-01  -3.8837116350153111e-01  -3.8625530402229857e-01  -3.8107758562173411e-01  -3.7287727611802751e-01  -3.6166089296725751e-01  -3.4739656153107901e-01  -3.3001101869992822e-01  -3.0938940495828809e-01  -2.8537797260301362e-01  -2.5778959871777712e-01  -2.2641194131098538e-01  -1.9101773393971019e-01  -1.5137670689505939e-01  -1.0727093228259334e-01  -5.8463066128596849e-02  -5.0495974481620676e-03  5.4595916555160787e-02  1.1372399646503022e-01  2.0048839913625915e-01  2.0855051729831328e-01  5.1777144446544066e-01  -2.4647205068231026e-01  -1.9838773894672282e-01  -7.9435032989723564e-01  -5.5201090963119182e-01  -5.0434736634699817e-01  -4.2001396035620414e-01  -3.4797867172147612e-01  -2.7792590911573284e-01  -2.1217588888007710e-01  -1.5065920959956780e-01  -9.3782413999054223e-02  -4.1911003753629821e-02  4.5918761805033856e-03  4.5394139286642814e-02  8.0214145468100448e-02  1.0883682229218333e-01  1.3112642772619648e-01  1.4703594725301025e-01  1.5661302789245862e-01  1.6000253702012562e-01  1.5744573494917535e-01  1.4927630027555447e-01  1.3591336760607045e-01  1.1785198706003408e-01  9.5651334243597716e-02  6.9921223731267870e-02  4.1307381764010602e-02  1.0476093618583494e-02  -2.1901271817780319e-02  -5.5163258679246145e-02  -8.8672366662299260e-02  -1.2182764840223377e-01  -1.5407547888484699e-01  -1.8491817275839312e-01  -2.1392021399359878e-01  -2.4071197976536196e-01  -2.6499089504451251e-01  -2.8652010813072709e-01  -3.0512480241025902e-01  -3.2068641888366833e-01  -3.3313505253431136e-01  -3.4244044068817298e-01  -3.4860190621779341e-01  -3.5163775821771109e-01  -3.5157454217039524e-01  -3.4843666095781362e-01  -3.4223673768223878e-01  -3.3296717314384350e-01  -3.2059319090265376e-01  -3.0504769971198264e-01  -2.8622812703323097e-01  -2.6399538095640357e-01  -2.3817488162236600e-01  -2.0855959314537209e-01  -1.7491471682028550e-01  -1.3698358961657442e-01  -9.4494208345490258e-02  -4.7168449775877204e-02  5.3186944320238660e-03  6.2971831310766960e-02  1.2767859045204605e-01  1.9234373072247907e-01  2.8777321901143954e-01  2.9809817099316038e-01  6.3944591195948930e-01  -1.9838773894672282e-01  -1.5215128034514130e-01  -8.2392998315576549e-01  -5.6656476348655826e-01  -5.2761689260986067e-01  -4.4611493019433213e-01  -3.7795621462137829e-01  -3.1132024739361108e-01  -2.4887136251358813e-01  -1.9044767998482559e-01  -1.3641855602706143e-01  -8.7088535780156046e-02  -4.2756662440825766e-02  -3.6919484677687725e-03  2.9881576075359229e-02  5.7797555172989123e-02  7.9957505241584015e-02  9.6338312509598539e-02  1.0699700191535948e-01  1.1207271877559967e-01  1.1178600904788981e-01  1.0643546925313217e-01  9.6392001283694101e-02  8.2090894363455763e-02  6.4022106640186968e-02  4.2719088201272057e-02  1.8746614376001332e-02  -7.3119581790133340e-03  -3.4867515449772929e-02  -6.3337674146148812e-02  -9.2158480285755143e-02  -1.2079495247022630e-01  -1.4875012796131712e-01  -1.7557234835937238e-01  -2.0086059173698734e-01  -2.2426772724369173e-01  -2.4550166648617763e-01  -2.6432443751323481e-01  -2.8054931704847036e-01  -2.9403618682031624e-01  -3.0468538620425262e-01  -3.1243032792798570e-01  -3.1722924617409959e-01  -3.1905639768694172e-01  -3.1789312703125266e-01  -3.1371911440903821e-01  -3.0650419420496111e-01  -2.9620101593301013e-01  -2.8273884850584297e-01  -2.6601869465386230e-01  -2.4590988090724616e-01  -2.2224812972782709e-01  -1.9483509253613684e-01  -1.6343912661227600e-01  -1.2779704362977745e-01  -8.7616287809123741e-02  -4.2577103983389014e-02  7.6631002482636362e-03  6.3517269259237119e-02  1.2509004689230371e-01  1.9450187363259192e-01  2.6436848740620728e-01  3.6783781431578377e-01  3.8052697379390688e-01  7.5111596915480983e-01  -1.5215128034514130e-01  -1.0953951605191999e-01  -8.4902452121217675e-01  -5.7817671809971338e-01  -5.4765013828281339e-01  -4.6892888753833462e-01  -4.0446646317102813e-01  -3.4101528751025145e-01  -2.8158863085047819e-01  -2.2595348446324459e-01  -1.7446153596561867e-01  -1.2737512236023477e-01  -8.4946201369046848e-02  -4.7395636374192300e-02  -1.4902452988990934e-02  1.2405611691979171e-02  3.4459831633727560e-02  5.1256213507245095e-02  6.2859096116596916e-02  6.9402565814226616e-02  7.1089694512182264e-02  6.8189675314471815e-02  6.1032997084864107e-02  5.0004866713216641e-02  3.5537134628857367e-02  1.8099042427836935e-02  -1.8128730555539484e-03  -2.3685338347220440e-02  -4.6999006402249563e-02  -7.1238836753563448e-02  -9.5903856690596895e-02  -1.2051597472042942e-01  -1.4462757913307334e-01  -1.6782769100573336e-01  -1.8974651228164705e-01  -2.1005826220773222e-01  -2.2848227071130436e-01  -2.4478235180585095e-01  -2.5876455155547318e-01  -2.7027341555738743e-01  -2.7918697204068249e-01  -2.8541067163271860e-01  -2.8887054590313060e-01  -2.8950588119310489e-01  -2.8726168903963573e-01  -2.8208127540876160e-01  -2.7389916556673410e-01  -2.6263463591658143e-01  -2.4818603612040815e-01  -2.3042605230986182e-01  -2.0919797528611636e-01  -1.8431297403854766e-01  -1.5554826650764353e-01  -1.2264599625402282e-01  -8.5312483748317972e-02  -4.3217387045704908e-02  4.0076360613404069e-03  5.6768404060253380e-02  1.1556063137112385e-01  1.8058392398229181e-01  2.5415635916423229e-01  3.2867764505788127e-01  4.3925575435083686e-01  4.5426035078586596e-01  8.5049892880416134e-01  -1.0953951605191999e-01  -7.2189992271894224e-02  -8.7013293868680941e-01  -5.8750010321253532e-01  -5.6483077427266948e-01  -4.8874423697641400e-01  -4.2773107100995672e-01  -3.6721180298451767e-01  -3.1053665680552606e-01  -2.5741422469933078e-01  -2.0818990126700246e-01  -1.6309616305541175e-01  -1.2234979861095586e-01  -8.6134397980601171e-02  -5.4593418648259048e-02  -2.7823670663993803e-02  -5.8698620157310623e-03  1.1279484101186477e-02  2.3694532432364062e-02  3.1504986144378085e-02  3.4899221047364808e-02  3.4121768505152299e-02  2.9469215177682556e-02  2.1284697453585022e-02  9.9511757681126928e-03  -4.1162511301047677e-03  -2.0478724227869623e-02  -3.8682394587806