<?xml version="1.0"?>
<VTKFile type="UnstructuredGrid"  version="0.1"  >
<UnstructuredGrid>
<Piece  NumberOfPoints="4225" NumberOfCells="8192">
<Points>
<DataArray  type="Float64"  NumberOfComponents="3"  format="ascii">-1 -1 0  -0.96875 -1 0  -0.9375 -1 0  -0.90625 -1 0  -0.875 -1 0  -0.84375 -1 0  -0.8125 -1 0  -0.78125 -1 0  -0.75 -1 0  -0.71875 -1 0  -0.6875 -1 0  -0.65625 -1 0  -0.625 -1 0  -0.59375 -1 0  -0.5625 -1 0  -0.53125 -1 0  -0.5 -1 0  -0.46875 -1 0  -0.4375 -1 0  -0.40625 -1 0  -0.375 -1 0  -0.34375 -1 0  -0.3125 -1 0  -0.28125 -1 0  -0.25 -1 0  -0.21875 -1 0  -0.1875 -1 0  -0.15625 -1 0  -0.125 -1 0  -0.09375 -1 0  -0.0625 -1 0  -0.03125 -1 0  0 -1 0  0.03125 -1 0  0.0625 -1 0  0.09375 -1 0  0.125 -1 0  0.15625 -1 0  0.1875 -1 0  0.21875 -1 0  0.25 -1 0  0.28125 -1 0  0.3125 -1 0  0.34375 -1 0  0.375 -1 0  0.40625 -1 0  0.4375 -1 0  0.46875 -1 0  0.5 -1 0  0.53125 -1 0  0.5625 -1 0  0.59375 -1 0  0.625 -1 0  0.65625 -1 0  0.6875 -1 0  0.71875 -1 0  0.75 -1 0  0.78125 -1 0  0.8125 -1 0  0.84375 -1 0  0.875 -1 0  0.90625 -1 0  0.9375 -1 0  0.96875 -1 0  1 -1 0  -1 -0.96875 0  -0.96875 -0.96875 0  -0.9375 -0.96875 0  -0.90625 -0.96875 0  -0.875 -0.96875 0  -0.84375 -0.96875 0  -0.8125 -0.96875 0  -0.78125 -0.96875 0  -0.75 -0.96875 0  -0.71875 -0.96875 0  -0.6875 -0.96875 0  -0.65625 -0.96875 0  -0.625 -0.96875 0  -0.59375 -0.96875 0  -0.5625 -0.96875 0  -0.53125 -0.96875 0  -0.5 -0.96875 0  -0.46875 -0.96875 0  -0.4375 -0.96875 0  -0.40625 -0.96875 0  -0.375 -0.96875 0  -0.34375 -0.96875 0  -0.3125 -0.96875 0  -0.28125 -0.96875 0  -0.25 -0.96875 0  -0.21875 -0.96875 0  -0.1875 -0.96875 0  -0.15625 -0.96875 0  -0.125 -0.96875 0  -0.09375 -0.96875 0  -0.0625 -0.96875 0  -0.03125 -0.96875 0  0 -0.96875 0  0.03125 -0.96875 0  0.0625 -0.96875 0  0.09375 -0.96875 0  0.125 -0.96875 0  0.15625 -0.96875 0  0.1875 -0.96875 0  0.21875 -0.96875 0  0.25 -0.96875 0  0.28125 -0.96875 0  0.3125 -0.96875 0  0.34375 -0.96875 0  0.375 -0.96875 0  0.40625 -0.96875 0  0.4375 -0.96875 0  0.46875 -0.96875 0  0.5 -0.96875 0  0.53125 -0.96875 0  0.5625 -0.96875 0  0.59375 -0.96875 0  0.625 -0.96875 0  0.65625 -0.96875 0  0.6875 -0.96875 0  0.71875 -0.96875 0  0.75 -0.96875 0  0.78125 -0.96875 0  0.8125 -0.96875 0  0.84375 -0.96875 0  0.875 -0.96875 0  0.90625 -0.96875 0  0.9375 -0.96875 0  0.96875 -0.96875 0  1 -0.96875 0  -1 -0.9375 0  -0.96875 -0.9375 0  -0.9375 -0.9375 0  -0.90625 -0.9375 0  -0.875 -0.9375 0  -0.84375 -0.9375 0  -0.8125 -0.9375 0  -0.78125 -0.9375 0  -0.75 -0.9375 0  -0.71875 -0.9375 0  -0.6875 -0.9375 0  -0.65625 -0.9375 0  -0.625 -0.9375 0  -0.59375 -0.9375 0  -0.5625 -0.9375 0  -0.53125 -0.9375 0  -0.5 -0.9375 0  -0.46875 -0.9375 0  -0.4375 -0.9375 0  -0.40625 -0.9375 0  -0.375 -0.9375 0  -0.34375 -0.9375 0  -0.3125 -0.9375 0  -0.28125 -0.9375 0  -0.25 -0.9375 0  -0.21875 -0.9375 0  -0.1875 -0.9375 0  -0.15625 -0.9375 0  -0.125 -0.9375 0  -0.09375 -0.9375 0  -0.0625 -0.9375 0  -0.03125 -0.9375 0  0 -0.9375 0  0.03125 -0.9375 0  0.0625 -0.9375 0  0.09375 -0.9375 0  0.125 -0.9375 0  0.15625 -0.9375 0  0.1875 -0.9375 0  0.21875 -0.9375 0  0.25 -0.9375 0  0.28125 -0.9375 0  0.3125 -0.9375 0  0.34375 -0.9375 0  0.375 -0.9375 0  0.40625 -0.9375 0  0.4375 -0.9375 0  0.46875 -0.9375 0  0.5 -0.9375 0  0.53125 -0.9375 0  0.5625 -0.9375 0  0.59375 -0.9375 0  0.625 -0.9375 0  0.65625 -0.9375 0  0.6875 -0.9375 0  0.71875 -0.9375 0  0.75 -0.9375 0  0.78125 -0.9375 0  0.8125 -0.9375 0  0.84375 -0.9375 0  0.875 -0.9375 0  0.90625 -0.9375 0  0.9375 -0.9375 0  0.96875 -0.9375 0  1 -0.9375 0  -1 -0.90625 0  -0.96875 -0.90625 0  -0.9375 -0.90625 0  -0.90625 -0.90625 0  -0.875 -0.90625 0  -0.84375 -0.90625 0  -0.8125 -0.90625 0  -0.78125 -0.90625 0  -0.75 -0.90625 0  -0.71875 -0.90625 0  -0.6875 -0.90625 0  -0.65625 -0.90625 0  -0.625 -0.90625 0  -0.59375 -0.90625 0  -0.5625 -0.90625 0  -0.53125 -0.90625 0  -0.5 -0.90625 0  -0.46875 -0.90625 0  -0.4375 -0.90625 0  -0.40625 -0.90625 0  -0.375 -0.90625 0  -0.34375 -0.90625 0  -0.3125 -0.90625 0  -0.28125 -0.90625 0  -0.25 -0.90625 0  -0.21875 -0.90625 0  -0.1875 -0.90625 0  -0.15625 -0.90625 0  -0.125 -0.90625 0  -0.09375 -0.90625 0  -0.0625 -0.90625 0  -0.03125 -0.90625 0  0 -0.90625 0  0.03125 -0.90625 0  0.0625 -0.90625 0  0.09375 -0.90625 0  0.125 -0.90625 0  0.15625 -0.90625 0  0.1875 -0.90625 0  0.21875 -0.90625 0  0.25 -0.90625 0  0.28125 -0.90625 0  0.3125 -0.90625 0  0.34375 -0.90625 0  0.375 -0.90625 0  0.40625 -0.90625 0  0.4375 -0.90625 0  0.46875 -0.90625 0  0.5 -0.90625 0  0.53125 -0.90625 0  0.5625 -0.90625 0  0.59375 -0.90625 0  0.625 -0.90625 0  0.65625 -0.90625 0  0.6875 -0.90625 0  0.71875 -0.90625 0  0.75 -0.90625 0  0.78125 -0.90625 0  0.8125 -0.90625 0  0.84375 -0.90625 0  0.875 -0.90625 0  0.90625 -0.90625 0  0.9375 -0.90625 0  0.96875 -0.90625 0  1 -0.90625 0  -1 -0.875 0  -0.96875 -0.875 0  -0.9375 -0.875 0  -0.90625 -0.875 0  -0.875 -0.875 0  -0.84375 -0.875 0  -0.8125 -0.875 0  -0.78125 -0.875 0  -0.75 -0.875 0  -0.71875 -0.875 0  -0.6875 -0.875 0  -0.65625 -0.875 0  -0.625 -0.875 0  -0.59375 -0.875 0  -0.5625 -0.875 0  -0.53125 -0.875 0  -0.5 -0.875 0  -0.46875 -0.875 0  -0.4375 -0.875 0  -0.40625 -0.875 0  -0.375 -0.875 0  -0.34375 -0.875 0  -0.3125 -0.875 0  -0.28125 -0.875 0  -0.25 -0.875 0  -0.21875 -0.875 0  -0.1875 -0.875 0  -0.15625 -0.875 0  -0.125 -0.875 0  -0.09375 -0.875 0  -0.0625 -0.875 0  -0.03125 -0.875 0  0 -0.875 0  0.03125 -0.875 0  0.0625 -0.875 0  0.09375 -0.875 0  0.125 -0.875 0  0.15625 -0.875 0  0.1875 -0.875 0  0.21875 -0.875 0  0.25 -0.875 0  0.28125 -0.875 0  0.3125 -0.875 0  0.34375 -0.875 0  0.375 -0.875 0  0.40625 -0.875 0  0.4375 -0.875 0  0.46875 -0.875 0  0.5 -0.875 0  0.53125 -0.875 0  0.5625 -0.875 0  0.59375 -0.875 0  0.625 -0.875 0  0.65625 -0.875 0  0.6875 -0.875 0  0.71875 -0.875 0  0.75 -0.875 0  0.78125 -0.875 0  0.8125 -0.875 0  0.84375 -0.875 0  0.875 -0.875 0  0.90625 -0.875 0  0.9375 -0.875 0  0.96875 -0.875 0  1 -0.875 0  -1 -0.84375 0  -0.96875 -0.84375 0  -0.9375 -0.84375 0  -0.90625 -0.84375 0  -0.875 -0.84375 0  -0.84375 -0.84375 0  -0.8125 -0.84375 0  -0.78125 -0.84375 0  -0.75 -0.84375 0  -0.71875 -0.84375 0  -0.6875 -0.84375 0  -0.65625 -0.84375 0  -0.625 -0.84375 0  -0.59375 -0.84375 0  -0.5625 -0.84375 0  -0.53125 -0.84375 0  -0.5 -0.84375 0  -0.46875 -0.84375 0  -0.4375 -0.84375 0  -0.40625 -0.84375 0  -0.375 -0.84375 0  -0.34375 -0.84375 0  -0.3125 -0.84375 0  -0.28125 -0.84375 0  -0.25 -0.84375 0  -0.21875 -0.84375 0  -0.1875 -0.84375 0  -0.15625 -0.84375 0  -0.125 -0.84375 0  -0.09375 -0.84375 0  -0.0625 -0.84375 0  -0.03125 -0.84375 0  0 -0.84375 0  0.03125 -0.84375 0  0.0625 -0.84375 0  0.09375 -0.84375 0  0.125 -0.84375 0  0.15625 -0.84375 0  0.1875 -0.84375 0  0.21875 -0.84375 0  0.25 -0.84375 0  0.28125 -0.84375 0  0.3125 -0.84375 0  0.34375 -0.84375 0  0.375 -0.84375 0  0.40625 -0.84375 0  0.4375 -0.84375 0  0.46875 -0.84375 0  0.5 -0.84375 0  0.53125 -0.84375 0  0.5625 -0.84375 0  0.59375 -0.84375 0  0.625 -0.84375 0  0.65625 -0.84375 0  0.6875 -0.84375 0  0.71875 -0.84375 0  0.75 -0.84375 0  0.78125 -0.84375 0  0.8125 -0.84375 0  0.84375 -0.84375 0  0.875 -0.84375 0  0.90625 -0.84375 0  0.9375 -0.84375 0  0.96875 -0.84375 0  1 -0.84375 0  -1 -0.8125 0  -0.96875 -0.8125 0  -0.9375 -0.8125 0  -0.90625 -0.8125 0  -0.875 -0.8125 0  -0.84375 -0.8125 0  -0.8125 -0.8125 0  -0.78125 -0.8125 0  -0.75 -0.8125 0  -0.71875 -0.8125 0  -0.6875 -0.8125 0  -0.65625 -0.8125 0  -0.625 -0.8125 0  -0.59375 -0.8125 0  -0.5625 -0.8125 0  -0.53125 -0.8125 0  -0.5 -0.8125 0  -0.46875 -0.8125 0  -0.4375 -0.8125 0  -0.40625 -0.8125 0  -0.375 -0.8125 0  -0.34375 -0.8125 0  -0.3125 -0.8125 0  -0.28125 -0.8125 0  -0.25 -0.8125 0  -0.21875 -0.8125 0  -0.1875 -0.8125 0  -0.15625 -0.8125 0  -0.125 -0.8125 0  -0.09375 -0.8125 0  -0.0625 -0.8125 0  -0.03125 -0.8125 0  0 -0.8125 0  0.03125 -0.8125 0  0.0625 -0.8125 0  0.09375 -0.8125 0  0.125 -0.8125 0  0.15625 -0.8125 0  0.1875 -0.8125 0  0.21875 -0.8125 0  0.25 -0.8125 0  0.28125 -0.8125 0  0.3125 -0.8125 0  0.34375 -0.8125 0  0.375 -0.8125 0  0.40625 -0.8125 0  0.4375 -0.8125 0  0.46875 -0.8125 0  0.5 -0.8125 0  0.53125 -0.8125 0  0.5625 -0.8125 0  0.59375 -0.8125 0  0.625 -0.8125 0  0.65625 -0.8125 0  0.6875 -0.8125 0  0.71875 -0.8125 0  0.75 -0.8125 0  0.78125 -0.8125 0  0.8125 -0.8125 0  0.84375 -0.8125 0  0.875 -0.8125 0  0.90625 -0.8125 0  0.9375 -0.8125 0  0.96875 -0.8125 0  1 -0.8125 0  -1 -0.78125 0  -0.96875 -0.78125 0  -0.9375 -0.78125 0  -0.90625 -0.78125 0  -0.875 -0.78125 0  -0.84375 -0.78125 0  -0.8125 -0.78125 0  -0.78125 -0.78125 0  -0.75 -0.78125 0  -0.71875 -0.78125 0  -0.6875 -0.78125 0  -0.65625 -0.78125 0  -0.625 -0.78125 0  -0.59375 -0.78125 0  -0.5625 -0.78125 0  -0.53125 -0.78125 0  -0.5 -0.78125 0  -0.46875 -0.78125 0  -0.4375 -0.78125 0  -0.40625 -0.78125 0  -0.375 -0.78125 0  -0.34375 -0.78125 0  -0.3125 -0.78125 0  -0.28125 -0.78125 0  -0.25 -0.78125 0  -0.21875 -0.78125 0  -0.1875 -0.78125 0  -0.15625 -0.78125 0  -0.125 -0.78125 0  -0.09375 -0.78125 0  -0.0625 -0.78125 0  -0.03125 -0.78125 0  0 -0.78125 0  0.03125 -0.78125 0  0.0625 -0.78125 0  0.09375 -0.78125 0  0.125 -0.78125 0  0.15625 -0.78125 0  0.1875 -0.78125 0  0.21875 -0.78125 0  0.25 -0.78125 0  0.28125 -0.78125 0  0.3125 -0.78125 0  0.34375 -0.78125 0  0.375 -0.78125 0  0.40625 -0.78125 0  0.4375 -0.78125 0  0.46875 -0.78125 0  0.5 -0.78125 0  0.53125 -0.78125 0  0.5625 -0.78125 0  0.59375 -0.78125 0  0.625 -0.78125 0  0.65625 -0.78125 0  0.6875 -0.78125 0  0.71875 -0.78125 0  0.75 -0.78125 0  0.78125 -0.78125 0  0.8125 -0.78125 0  0.84375 -0.78125 0  0.875 -0.78125 0  0.90625 -0.78125 0  0.9375 -0.78125 0  0.96875 -0.78125 0  1 -0.78125 0  -1 -0.75 0  -0.96875 -0.75 0  -0.9375 -0.75 0  -0.90625 -0.75 0  -0.875 -0.75 0  -0.84375 -0.75 0  -0.8125 -0.75 0  -0.78125 -0.75 0  -0.75 -0.75 0  -0.71875 -0.75 0  -0.6875 -0.75 0  -0.65625 -0.75 0  -0.625 -0.75 0  -0.59375 -0.75 0  -0.5625 -0.75 0  -0.53125 -0.75 0  -0.5 -0.75 0  -0.46875 -0.75 0  -0.4375 -0.75 0  -0.40625 -0.75
[...]
<PointData  Scalars="f_15"> 
<DataArray  type="Float64"  Name="f_15"  format="ascii">-4.2544740662939151e-01  -4.2135998031861310e-01  -4.0925477888714645e-01  -3.8959699843732748e-01  -3.6314207644763230e-01  -3.3090666073403391e-01  -2.9412954024457655e-01  -2.5422403909482305e-01  -2.1272370331469570e-01  -1.7122336753456832e-01  -1.3131786638481482e-01  -9.4540745895357492e-02  -6.2305330181759093e-02  -3.5850408192063969e-02  -1.6192627742244954e-02  -4.0874263107782798e-03  0.0000000000000000e+00  -4.0874263107782798e-03  -1.6192627742244978e-02  -3.5850408192063990e-02  -6.2305330181759128e-02  -9.4540745895357547e-02  -1.3131786638481496e-01  -1.7122336753456840e-01  -2.1272370331469576e-01  -2.5422403909482305e-01  -2.9412954024457649e-01  -3.3090666073403402e-01  -3.6314207644763230e-01  -3.8959699843732748e-01  -4.0925477888714645e-01  -4.2135998031861310e-01  -4.2544740662939151e-01  -4.2135998031861310e-01  -4.0925477888714645e-01  -3.8959699843732748e-01  -3.6314207644763230e-01  -3.3090666073403402e-01  -2.9412954024457649e-01  -2.5422403909482305e-01  -2.1272370331469576e-01  -1.7122336753456840e-01  -1.3131786638481496e-01  -9.4540745895357547e-02  -6.2305330181759128e-02  -3.5850408192063990e-02  -1.6192627742244978e-02  -4.0874263107782798e-03  0.0000000000000000e+00  -4.0874263107782798e-03  -1.6192627742244954e-02  -3.5850408192063969e-02  -6.2305330181759093e-02  -9.4540745895357492e-02  -1.3131786638481482e-01  -1.7122336753456832e-01  -2.1272370331469570e-01  -2.5422403909482305e-01  -2.9412954024457655e-01  -3.3090666073403391e-01  -3.6314207644763230e-01  -3.8959699843732748e-01  -4.0925477888714645e-01  -4.2135998031861310e-01  -4.2544740662939151e-01  -4.2135998031861310e-01  -3.6758591198367735e-01  -3.6347439194265052e-01  -3.4877721966558617e-01  -3.2581050351324292e-01  -2.9455154781988013e-01  -2.5621408520719152e-01  -2.1245660899007798e-01  -1.6512775770139906e-01  -1.1611193571662309e-01  -6.7232819597109778e-02  -2.0190275686546782e-02  2.3482610691012151e-02  6.2450229799791437e-02  9.5597224169588296e-02  1.2204559410573117e-01  1.4116719458920612e-01  1.5259209286033193e-01  1.5621300661563622e-01  1.5218588723796575e-01  1.4092660295670265e-01  1.2310338041720396e-01  9.9624086889951932e-02  7.1616157744062756e-02  4.0394763757521199e-02  7.4117525183143790e-03  -2.5824386372077367e-02  -5.7864980632406242e-02  -8.7469763300049366e-02  -1.1376132981869781e-01  -1.3633728943634554e-01  -1.5528941166330895e-01  -1.7110880580750293e-01  -1.8450588682434457e-01  -1.9621147767004310e-01  -2.0682545113012171e-01  -2.1674626146053932e-01  -2.2617418304799314e-01  -2.3515699189245565e-01  -2.4364486220596743e-01  -2.5153381223145821e-01  -2.5869213324864732e-01  -2.6497472745830736e-01  -2.7023362735513035e-01  -2.7433129738056466e-01  -2.7715903093026339e-01  -2.7865864191074802e-01  -2.7884267681100422e-01  -2.7780752925095004e-01  -2.7573474047694863e-01  -2.7287886143216128e-01  -2.6954470016737542e-01  -2.6606427615843714e-01  -2.6278931574973124e-01  -2.6012513547169530e-01  -2.5860531751449101e-01  -2.5901523513661412e-01  -2.6239245636424757e-01  -2.7002105324741410e-01  -2.8265932704569896e-01  -3.0102013546170020e-01  -3.2198804998891789e-01  -3.4962665425290601e-01  -3.5841588359433857e-01  -4.2135998031861310e-01  -4.0925477888714645e-01  -3.4806825842642913e-01  -3.6523307530104204e-01  -3.5478253252897701e-01  -3.3573165942923200e-01  -3.0781834897298305e-01  -2.7289784899653119e-01  -2.3285003039638349e-01  -1.8962266458433055e-01  -1.4512157064931186e-01  -1.0114412785036259e-01  -5.9336080063593651e-02  -2.1160212115313038e-02  1.2130067191985996e-02  3.9514566626696307e-02  6.0227205628335320e-02  7.3772546559275093e-02  7.9936513246252408e-02  7.8790255861230951e-02  7.0686775645921046e-02  5.6250494537378209e-02  3.6360305987956393e-02  1.2126154341373241e-02  -1.5142693305133379e-02  -4.3983359892417369e-02  -7.2849502306729486e-02  -1.0021813601970132e-01  -1.2473747263544230e-01  -1.4539811349581291e-01  -1.6168122953210556e-01  -1.7362318103209329e-01  -1.8175694990775357e-01  -1.8694204837996212e-01  -1.9014358938810055e-01  -1.9223466888274915e-01  -1.9387152325577295e-01  -1.9545198517155815e-01  -1.9713928212404849e-01  -1.9892249999926412e-01  -2.0068768444603449e-01  -2.0228198734639777e-01  -2.0356260971250240e-01  -2.0442907351556303e-01  -2.0484099661906474e-01  -2.0482432983577237e-01  -2.0446876104314859e-01  -2.0391847015527723e-01  -2.0335849053820293e-01  -2.0299910722401740e-01  -2.0306106040670446e-01  -2.0376449675422956e-01  -2.0532468546298122e-01  -2.0795912159839577e-01  -2.1190865975310610e-01  -2.1748229495014332e-01  -2.2510536289188068e-01  -2.3539400659536899e-01  -2.4907076847703843e-01  -2.6694904954686588e-01  -2.8899233600097812e-01  -3.1499160510876645e-01  -3.4018959329436438e-01  -3.6702321597592868e-01  -3.6750213598668469e-01  -4.0925477888714645e-01  -3.8959699843732748e-01  -3.2278875778771832e-01  -3.4096086603465314e-01  -3.3102202697688260e-01  -3.1459614042460088e-01  -2.8894846911624805e-01  -2.5599907656446957e-01  -2.1744424245873067e-01  -1.7517724814099156e-01  -1.3110659629613863e-01  -8.7064189627062763e-02  -4.4740965358099578e-02  -5.6444118345798083e-03  2.8930965708591935e-02  5.7925727435444337e-02  8.0532773560061735e-02  9.6210639519013555e-02  1.0469285318617058e-01  1.0599322994229292e-01  1.0040702940755385e-01  8.8507724684948968e-02  7.1138246942837213e-02  4.9393414950659187e-02  2.4586655076582978e-02  -1.8098423221616275e-03  -2.8263165802716646e-02  -5.3319854995565304e-02  -7.5773011780014443e-02  -9.4816885213368438e-02  -1.1013670722965450e-01  -1.2189623446957064e-01  -1.3062498966130948e-01  -1.3704753913269932e-01  -1.4191255151995807e-01  -1.4586529231323014e-01  -1.4937981636591549e-01  -1.5274470093456941e-01  -1.5608562311245708e-01  -1.5940689990530565e-01  -1.6263763464623682e-01  -1.6567323699996608e-01  -1.6840797676169525e-01  -1.7075790110886524e-01  -1.7267544795426196e-01  -1.7415773707003115e-01  -1.7525031681242170e-01  -1.7604768131506002e-01  -1.7669141513140740e-01  -1.7736664411894662e-01  -1.7829748659039588e-01  -1.7974283273496089e-01  -1.8199418137579029e-01  -1.8537975982070207e-01  -1.9027574918805554e-01  -1.9713501146067655e-01  -2.0650248443239616e-01  -2.1905301228439333e-01  -2.3540640876213603e-01  -2.5609501428432191e-01  -2.8038277457852395e-01  -3.0748245178134292e-01  -3.3126754562659771e-01  -3.5495017314469463e-01  -3.4892334459915725e-01  -3.8959699843732748e-01  -3.6314207644763230e-01  -2.9942745148741740e-01  -3.1547763176435351e-01  -3.0694953914206075e-01  -2.9215416698196711e-01  -2.6873365686524842e-01  -2.3846898078043782e-01  -2.0279017533588684e-01  -1.6344025883373875e-01  -1.2222198633776282e-01  -8.0899004088759593e-02  -4.1113646596507215e-02  -4.3311603636366500e-03  2.8197920670116589e-02  5.5463660355628421e-02  7.6715137315424481e-02  9.1473529568502923e-02  9.9540511223062469e-02  1.0100181628431373e-01  9.6225228245743130e-02  8.5851477974968976e-02  7.0775000476647393e-02  5.2109317437784027e-02  3.1129769744978383e-02  9.1868769646008385e-03  -1.2410303994959730e-02  -3.2528559128094936e-02  -5.0335039545204199e-02  -6.5376499582766520e-02  -7.7586773837534886e-02  -8.7220645799913718e-02  -9.4738923833854918e-02  -1.0068252433672142e-01  -1.0556772694874836e-01  -1.0981855488459073e-01  -1.1373667383815095e-01  -1.1750048988978176e-01  -1.2118279244422342e-01  -1.2477761968013398e-01  -1.2822943097700770e-01  -1.3146018057108041e-01  -1.3439195205902446e-01  -1.3696443275235778e-01  -1.3914746433286343e-01  -1.4094939651486757e-01  -1.4242201276208566e-01  -1.4366275640379100e-01  -1.4481488145744476e-01  -1.4606623724661288e-01  -1.4764750429530088e-01  -1.4983127820251971e-01  -1.5293333472748857e-01  -1.5731980921561034e-01  -1.6341832539934112e-01  -1.7174355010020209e-01  -1.8289086088062245e-01  -1.9754928292620297e-01  -2.1620958885605229e-01  -2.3914883876771773e-01  -2.6497505449870157e-01  -2.9260255139642105e-01  -3.1475166895893486e-01  -3.3636697508209451e-01  -3.2641180213957027e-01  -3.6314207644763230e-01  -3.3090666073403391e-01  -2.8024658455019175e-01  -2.8999651244663838e-01  -2.8019583395982350e-01  -2.6485259156400631e-01  -2.4223747470637527e-01  -2.1354804706704281e-01  -1.7992342701979031e-01  -1.4284142930400534e-01  -1.0389138267237892e-01  -6.4683549725251727e-02  -2.6756174049147118e-02  8.4937741486693502e-03  3.9860989725052615e-02  6.6367150012250103e-02  8.7285173644056802e-02  1.0215529011777207e-01  1.1079446248638007e-01  1.1329938438419306e-01  1.1004202434647961e-01  1.0165520348585937e-01  8.9004144342590436e-02  7.3138819625433282e-02  5.5222778508790690e-02  3.6438511814393441e-02  1.7877914440338153e-02  4.3638290814056402e-04  -1.5265163694047661e-02  -2.8910160737590760e-02  -4.0462296197972439e-02  -5.0099086696965500e-02  -5.8126126156922066e-02  -6.4895198173252927e-02  -7.0741312485158483e-02  -7.5943522176197598e-02  -8.0707212671055184e-02  -8.5162427114343131e-02  -8.9372680529562848e-02  -9.3349649784272987e-02  -9.7070335569274246e-02  -1.0049423263470399e-01  -1.0357897297761411e-01  -1.0629358485862200e-01  -1.0862913842677960e-01  -1.1060685292136715e-01  -1.1228399236480922e-01  -1.1375789381135053e-01  -1.1516857213744387e-01  -1.1670039148032046e-01  -1.1858347413396501e-01  -1.2109604005226150e-01  -1.2456866233438067e-01  -1.2939410716827721e-01  -1.3603845198164710e-01  -1.4506496823443868e-01  -1.5710540534355025e-01  -1.7285172832800838e-01  -1.9264728522963251e-01  -2.1653721255936800e-01  -2.4250206106924585e-01  -2.6944460914778245e-01  -2.8900271642453623e-01  -3.0872608371611387e-01  -2.9441007939095892e-01  -3.3090666073403391e-01  -2.9412954024457655e-01  -2.6653108027827443e-01  -2.6772993652523713e-01  -2.5570702725814931e-01  -2.3887630184017014e-01  -2.1612148072328569e-01  -1.8829412036819126e-01  -1.5632160546317578e-01  -1.2140979433621238e-01  -8.4905428030790320e-02  -4.8212713842755807e-02  -1.2703835085053473e-02  2.0354183851019444e-02  4.9857432228262694e-02  7.4908058295450150e-02  9.4844271842816893e-02  1.0925950618531888e-01  1.1801203488207634e-01  1.2122516533968879e-01  1.1927680798207566e-01  1.1277608252183165e-01  1.0252405891269076e-01  8.9456557803951092e-02  7.4569874624777835e-02  5.8835445870763996e-02  4.3115335960664955e-02  2.8093967651724842e-02  1.4239752072967260e-02  1.8026722808749344e-03  -9.1563369547984757e-03  -1.8716278940059186e-02  -2.7041508590737520e-02  -3.4332915046422281e-02  -4.0790717559245487e-02  -4.6590087223493427e-02  -5.1868074154814904e-02  -5.6719465721032501e-02  -6.1199171456270046e-02  -6.5329085816932211e-02  -6.9107621282665621e-02  -7.2520455809085768e-02  -7.5551300760655388e-02  -7.8191916434405886e-02  -8.0450889002042225e-02  -8.2361028432528974e-02  -8.3985386185399954e-02  -8.5422094906882101e-02  -8.6808273494554306e-02  -8.8323474703767502e-02  -9.0193223080937093e-02  -9.2693889978008467e-02  -9.6159576765400545e-02  -1.0099489284162634e-01  -1.0768656058504097e-01  -1.1682694842005627e-01  -1.2906223660417074e-01  -1.4507017622230578e-01  -1.6503298186588630e-01  -1.8881767674757910e-01  -2.1385240693538288e-01  -2.3935390175446616e-01  -2.5587251137105849e-01  -2.7421810040389133e-01  -2.5550751847602249e-01  -2.9412954024457655e-01  -2.5422403909482305e-01  -2.5820826188952162e-01  -2.4973190674942344e-01  -2.3496682411545533e-01  -2.1596213867516276e-01  -1.9232307044245012e-01  -1.6466019688474873e-01  -1.3371482797320094e-01  -1.0046208012611173e-01  -6.6018795573631536e-02  -3.1571501958676085e-02  1.6987949339104414e-03  3.2684525504657086e-02  6.0409627144877368e-02  8.4075433563688670e-02  1.0309417962083886e-01  1.1711054058438547e-01  1.2601156680561251e-01  1.2992480849306673e-01  1.2920373099492688e-01  1.2439920236551025e-01  1.1621634000684161e-01  1.0545780340776414e-01  9.2957611599700271e-02  7.9513025366913945e-02  6.5824328500727461e-02  5.2451938353923783e-02  3.9796597547731058e-02  2.8102746713192156e-02  1.7479926721451121e-02  7.9343075743910640e-03  -5.9734607702324033e-04  -8.2167774810652863e-03  -1.5039290318694753e-02  -2.1175604859276616e-02  -2.6720218312600397e-02  -3.1745474571559060e-02  -3.6300368410992385e-02  -4.0413043963513758e-02  -4.4095931016791989e-02  -4.7352504781850317e-02  -5.0184786148018384e-02  -5.2600892678471810e-02  -5.4622176971546921e-02  -5.6289702232973166e-02  -5.7669986884428433e-02  -5.8860092610410052e-02  -5.9992275742423419e-02  -6.1238603264995736e-02  -6.2816096756942455e-02  -6.4993631773383923e-02  -6.8101084887852992e-02  -7.2544775835675313e-02  -7.8819344784175682e-02  -8.7531405385119332e-02  -9.9324466063122299e-02  -1.1485254143701074e-01  -1.3413833914521195e-01  -1.5694707928165053e-01  -1.8024048832746992e-01  -2.0383804716065099e-01  -2.1708557322966357e-01  -2.3459817571496541e-01  -2.1116620222994606e-01  -2.5422403909482305e-01  -2.1272370331469570e-01  -2.5432992204041743e-01  -2.3588294594823905e-01  -2.1846027817179600e-01  -1.9720357859590248e-01  -1.7246339274768679e-01  -1.4465408656998971e-01  -1.1439116323052165e-01  -8.2477245491907034e-02  -4.9837101461269434e-02  -1.7460478107350429e-02  1.3659104937118621e-02  4.2583015598988305e-02  6.8479894450329926e-02  9.0668930219119925e-02  1.0865237705009026e-01  1.2213639418383525e-01  1.3103969779412539e-01  1.3548958113370355e-01  1.3580500729692113e-01  1.3246690459663943e-01  1.2607692243327076e-01  1.1730757131029275e-01  1.0684866242056400e-01  9.5356354230017953e-02  8.3411244114610344e-02  7.1490302028449026e-02  5.9954532857251983e-02  4.9051066829694651e-02  3.8926059637169157e-02  2.9643910817661923e-02  2.1208689865664834e-02  1.3584757572531851e-02  6.7147033208528944e-03  5.3366631862419823e-04  -5.0203134796968137e-03  -9.9998311289839492e-03  -1.4445221882313210e-02  -1.8384681128446274e-02  -2.1836756570923082e-02  -2.4814493349370435e-02  -2.7330594204273036e-02  -2.9403028782710183e-02  -3.1060714216438495e-02  -3.2349003254476455e-02  -3.3334906365786149e-02  -3.4112080722270774e-02  -3.4805792381215575e-02  -3.5578243300999096e-02  -3.6634828957511467e-02  -3.8232588427961053e-02  -4.0691150982182102e-02  -4.4410450700969287e-02  -4.9882558516397300e-02  -5.7716076281023584e-02  -6.8539332744199877e-02  -8.2981400309004374e-02  -1.0092253086680357e-01  -1.2211408555462479e-01  -1.4313283523034984e-01  -1.6462996177210010e-01  -1.7456332714306061e-01  -1.9179424420551902e-01  -1.6330432536002257e-01  -2.1272370331469570e-01  -1.7122336753456832e-01  -2.5368436402781003e-01  -2.2550315717854044e-01  -2.0582643057845723e-01  -1.8251063467473544e-01  -1.5671259009789118e-01  -1.2867265324181709e-01  -9.8915544034200040e-02  -6.8108450273998547e-02  -3.7020221898281150e-02  -6.4730845170971564e-03  2.2707633963779991e-02  4.9742083411956364e-02  7.3940133853551707e-02  9.4738696133283132e-02  1.1173009156360504e-01  1.2468003498593243e-01  1.3353430611812442e-01  1.3841370823567226e-01  1.3959748418416670e-01  1.3749621499229603e-01  1.3261627686766025e-01  1.2551914130376246e-01  1.1677971454190067e-01  1.0694823958023618e-01  9.6519666032587922e-02  8.5912989437880616e-02  7.5461218481569378e-02  6.5410935984239027e-02  5.5929292106416527e-02  4.7115833362720586e-02  3.9016723367267706e-02  3.1639347970422747e-02  2.4965855679999090e-02  1.8964662945339977e-02  1.3599397765844182e-02  8.8350691542139516e-03  4.6415508857836291e-03  9.9464916975443144e-04  -2.1248159244361196e-03  -4.7334503597507302e-03  -6.8487627753104482e-03  -8.4932837580539780e-03  -9.6989976616058942e-03  -1.0511906941189007e-02  -1.0996635271510079e-02  -1.1241138438413201e-02  -1.1361706058463556e-02  -1.1508683295167467e-02  -1.1873464369552401e-02  -1.2698079665882525e-02  -1.4287496941589086e-02  -1.7029155215673022e-02  -2.1404603841538142e-02  -2.8015418454418548e-02  -3.7467947401846398e-02  -5.0372929592644833e-02  -6.6497085625722638e-02  -8.5663156222236914e-02  -1.0412856247477795e-01  -1.2353281809675243e-01  -1.3023304157580484e-01  -1.4769706209178143e-01  -1.1380097519734297e-01  -1.7122336753456832e-01  -1.3131786638481482e-01  -2.5520427656120659e-01  -2.1783473003358400e-01  -1.9641747486136868e-01  -1.7134574174590542e-01  -1.4466492860359509e-01  -1.1644419423876511e-01  -8.7140174429565329e-02  -5.7311009553886523e-02  -2.7598274029058265e-02  1.3164333774814748e-03  2.8752866960477002e-02  5.4071965316653162e-02  7.6712013020754560e-02  9.6219072444516190e-02  1.1226992054642158e-01  1.2468613651634251e-01  1.3343851162339385e-01  1.3864155204608303e-01  1.4053857152165683e-01  1.3947867310197926e-01  1.3588775766406894e-01  1.3023638497817366e-01  1.2300768713195760e-01  1.1466841128855806e-01  1.0564555507554740e-01  9.6310060053749466e-02  8.6967919787620029e-02  7.7858084870728164e-02  6.9155883309012831e-02  6.0980366052512301e-02  5.3403967086840518e-02  4.6463049367548227e-02  4.0168175608361487e-02  3.4513256244292911e-02  2.9483019410933873e-02  2.5058527806027280e-02  2.1220688885575840e-02  1.7951891867352830e-02  1.5236018946461606e-02  1.3057152112542835e-02  1.1397295064171755e-02  1.0233412283941928e-02  9.5340063683493955e-03  9.2553885742241784e-03  9.3376783149788749e-03  9.7004643910938177e-03  1.0237908269815611e-02  1.0812861534088326e-02  1.1249411667566983e-02  1.1322528980811633e-02  1.0744776437559717e-02  9.1453996922334670e-03  6.0587686166667766e-03  8.9611328133527032e-04  -6.9255098013048895e-03  -1.8010041900560318e-02  -3.2045740107857781e-02  -4.8996317698075040e-02  -6.4846928201559143e-02  -8.2309212414787294e-02  -8.5939889433131272e-02  -1.0409779522705044e-01  -6.4474433979023998e-02  -1.3131786638481482e-01  -9.4540745895357492e-02  -2.5810716849401794e-01  -2.1225729036990768e-01  -1.8957971127691237e-01  -1.6304644659040499e-01  -1.3566627207054555e-01  -1.0733855024056302e-01  -7.8469697552369308e-02  -4.9525811308416254e-02  -2.1041053104027700e-02  6.4224755024115919e-03  3.2308739631002406e-02  5.6100298493853389e-02  7.7347305104772307e-02  9.5691519709980868e-02  1.1088400772142669e-01  1.2279551082520561e-01  1.3141892318620652e-01  1.3686385351015778e-01  1.3934387944601379e-01  1.3915773283469618e-01  1.3666623119086213e-01  1.3226715807816636e-01  1.2637042267037560e-01  1.1937563551913764e-01  1.1165375910290999e-01  1.0353383164133986e-01  9.5295051350970092e-02  8.7163891341853164e-02  7.9315455058320342e-02  7.1878033115650095e-02  6.4939738786752604e-02  5.8556168981460127e-02  5.2758179971398200e-02  4.7559076509364230e-02  4.2960717876681410e-02  3.8958259739028771e-02  3.5543421382381125e-02  3.2706321239235947e-02  3.0436018123256334e-02  2.8719959751941776e-02  2.7542555397065859e-02  2.6883075388064274e-02  2.6713036745975593e-02  2.6993167812662103e-02  2.7669960531608303e-02  2.8671710062975819e-02  2.9903806951612891e-02  3.1242830710275220e-02  3.2528846202205003e-02  3.3554561251855734e-02  3.4051349489786442e-02  3.3667334013504226e-02  3.1955587474329736e-02  2.8342885375524655e-02  2.2266837607846913e-02  1.3117590111017759e-02  1.2499873947508908e-03  -1.3485639784722196e-02  -2.6835237065529715e-02  -4.2599128754248233e-02  -4.3383622573358843e-02  -6.2638982720889816e-02  -1.7015701837212457e-02  -9.4540745895357492e-02  -6.2305330181759093e-02  -2.6185048803861255e-01  -2.0831780054512358e-01  -1.8475494501095194e-01  -1.5700062070987172e-01  -1.2906872034687622e-01  -1.0069158080309326e-01  -7.2239522635995160e-02  -4.4098909994811628e-02  -1.6711529621673344e-02  9.4633459189522422e-03  3.3976370869640206e-02  5.6414468211930670e-02  7.6423774013057597e-02  9.3728227475020229e-02  1.0814284778918798e-01  1.1958102903703437e-01  1.2805554471124592e-01  1.3367340044342438e-01  1.3662513484758840e-01  1.3716963927490808e-01  1.3561592252765572e-01  1.3230348420442922e-01  1.2758298002048982e-01  1.2179869665992690e-01  1.1527400854325717e-01  1.0830053869520223e-01  1.0