<?xml version="1.0"?>
<VTKFile type="UnstructuredGrid"  version="0.1"  >
<UnstructuredGrid>
<Piece  NumberOfPoints="4225" NumberOfCells="8192">
<Points>
<DataArray  type="Float64"  NumberOfComponents="3"  format="ascii">-1 -1 0  -0.96875 -1 0  -0.9375 -1 0  -0.90625 -1 0  -0.875 -1 0  -0.84375 -1 0  -0.8125 -1 0  -0.78125 -1 0  -0.75 -1 0  -0.71875 -1 0  -0.6875 -1 0  -0.65625 -1 0  -0.625 -1 0  -0.59375 -1 0  -0.5625 -1 0  -0.53125 -1 0  -0.5 -1 0  -0.46875 -1 0  -0.4375 -1 0  -0.40625 -1 0  -0.375 -1 0  -0.34375 -1 0  -0.3125 -1 0  -0.28125 -1 0  -0.25 -1 0  -0.21875 -1 0  -0.1875 -1 0  -0.15625 -1 0  -0.125 -1 0  -0.09375 -1 0  -0.0625 -1 0  -0.03125 -1 0  0 -1 0  0.03125 -1 0  0.0625 -1 0  0.09375 -1 0  0.125 -1 0  0.15625 -1 0  0.1875 -1 0  0.21875 -1 0  0.25 -1 0  0.28125 -1 0  0.3125 -1 0  0.34375 -1 0  0.375 -1 0  0.40625 -1 0  0.4375 -1 0  0.46875 -1 0  0.5 -1 0  0.53125 -1 0  0.5625 -1 0  0.59375 -1 0  0.625 -1 0  0.65625 -1 0  0.6875 -1 0  0.71875 -1 0  0.75 -1 0  0.78125 -1 0  0.8125 -1 0  0.84375 -1 0  0.875 -1 0  0.90625 -1 0  0.9375 -1 0  0.96875 -1 0  1 -1 0  -1 -0.96875 0  -0.96875 -0.96875 0  -0.9375 -0.96875 0  -0.90625 -0.96875 0  -0.875 -0.96875 0  -0.84375 -0.96875 0  -0.8125 -0.96875 0  -0.78125 -0.96875 0  -0.75 -0.96875 0  -0.71875 -0.96875 0  -0.6875 -0.96875 0  -0.65625 -0.96875 0  -0.625 -0.96875 0  -0.59375 -0.96875 0  -0.5625 -0.96875 0  -0.53125 -0.96875 0  -0.5 -0.96875 0  -0.46875 -0.96875 0  -0.4375 -0.96875 0  -0.40625 -0.96875 0  -0.375 -0.96875 0  -0.34375 -0.96875 0  -0.3125 -0.96875 0  -0.28125 -0.96875 0  -0.25 -0.96875 0  -0.21875 -0.96875 0  -0.1875 -0.96875 0  -0.15625 -0.96875 0  -0.125 -0.96875 0  -0.09375 -0.96875 0  -0.0625 -0.96875 0  -0.03125 -0.96875 0  0 -0.96875 0  0.03125 -0.96875 0  0.0625 -0.96875 0  0.09375 -0.96875 0  0.125 -0.96875 0  0.15625 -0.96875 0  0.1875 -0.96875 0  0.21875 -0.96875 0  0.25 -0.96875 0  0.28125 -0.96875 0  0.3125 -0.96875 0  0.34375 -0.96875 0  0.375 -0.96875 0  0.40625 -0.96875 0  0.4375 -0.96875 0  0.46875 -0.96875 0  0.5 -0.96875 0  0.53125 -0.96875 0  0.5625 -0.96875 0  0.59375 -0.96875 0  0.625 -0.96875 0  0.65625 -0.96875 0  0.6875 -0.96875 0  0.71875 -0.96875 0  0.75 -0.96875 0  0.78125 -0.96875 0  0.8125 -0.96875 0  0.84375 -0.96875 0  0.875 -0.96875 0  0.90625 -0.96875 0  0.9375 -0.96875 0  0.96875 -0.96875 0  1 -0.96875 0  -1 -0.9375 0  -0.96875 -0.9375 0  -0.9375 -0.9375 0  -0.90625 -0.9375 0  -0.875 -0.9375 0  -0.84375 -0.9375 0  -0.8125 -0.9375 0  -0.78125 -0.9375 0  -0.75 -0.9375 0  -0.71875 -0.9375 0  -0.6875 -0.9375 0  -0.65625 -0.9375 0  -0.625 -0.9375 0  -0.59375 -0.9375 0  -0.5625 -0.9375 0  -0.53125 -0.9375 0  -0.5 -0.9375 0  -0.46875 -0.9375 0  -0.4375 -0.9375 0  -0.40625 -0.9375 0  -0.375 -0.9375 0  -0.34375 -0.9375 0  -0.3125 -0.9375 0  -0.28125 -0.9375 0  -0.25 -0.9375 0  -0.21875 -0.9375 0  -0.1875 -0.9375 0  -0.15625 -0.9375 0  -0.125 -0.9375 0  -0.09375 -0.9375 0  -0.0625 -0.9375 0  -0.03125 -0.9375 0  0 -0.9375 0  0.03125 -0.9375 0  0.0625 -0.9375 0  0.09375 -0.9375 0  0.125 -0.9375 0  0.15625 -0.9375 0  0.1875 -0.9375 0  0.21875 -0.9375 0  0.25 -0.9375 0  0.28125 -0.9375 0  0.3125 -0.9375 0  0.34375 -0.9375 0  0.375 -0.9375 0  0.40625 -0.9375 0  0.4375 -0.9375 0  0.46875 -0.9375 0  0.5 -0.9375 0  0.53125 -0.9375 0  0.5625 -0.9375 0  0.59375 -0.9375 0  0.625 -0.9375 0  0.65625 -0.9375 0  0.6875 -0.9375 0  0.71875 -0.9375 0  0.75 -0.9375 0  0.78125 -0.9375 0  0.8125 -0.9375 0  0.84375 -0.9375 0  0.875 -0.9375 0  0.90625 -0.9375 0  0.9375 -0.9375 0  0.96875 -0.9375 0  1 -0.9375 0  -1 -0.90625 0  -0.96875 -0.90625 0  -0.9375 -0.90625 0  -0.90625 -0.90625 0  -0.875 -0.90625 0  -0.84375 -0.90625 0  -0.8125 -0.90625 0  -0.78125 -0.90625 0  -0.75 -0.90625 0  -0.71875 -0.90625 0  -0.6875 -0.90625 0  -0.65625 -0.90625 0  -0.625 -0.90625 0  -0.59375 -0.90625 0  -0.5625 -0.90625 0  -0.53125 -0.90625 0  -0.5 -0.90625 0  -0.46875 -0.90625 0  -0.4375 -0.90625 0  -0.40625 -0.90625 0  -0.375 -0.90625 0  -0.34375 -0.90625 0  -0.3125 -0.90625 0  -0.28125 -0.90625 0  -0.25 -0.90625 0  -0.21875 -0.90625 0  -0.1875 -0.90625 0  -0.15625 -0.90625 0  -0.125 -0.90625 0  -0.09375 -0.90625 0  -0.0625 -0.90625 0  -0.03125 -0.90625 0  0 -0.90625 0  0.03125 -0.90625 0  0.0625 -0.90625 0  0.09375 -0.90625 0  0.125 -0.90625 0  0.15625 -0.90625 0  0.1875 -0.90625 0  0.21875 -0.90625 0  0.25 -0.90625 0  0.28125 -0.90625 0  0.3125 -0.90625 0  0.34375 -0.90625 0  0.375 -0.90625 0  0.40625 -0.90625 0  0.4375 -0.90625 0  0.46875 -0.90625 0  0.5 -0.90625 0  0.53125 -0.90625 0  0.5625 -0.90625 0  0.59375 -0.90625 0  0.625 -0.90625 0  0.65625 -0.90625 0  0.6875 -0.90625 0  0.71875 -0.90625 0  0.75 -0.90625 0  0.78125 -0.90625 0  0.8125 -0.90625 0  0.84375 -0.90625 0  0.875 -0.90625 0  0.90625 -0.90625 0  0.9375 -0.90625 0  0.96875 -0.90625 0  1 -0.90625 0  -1 -0.875 0  -0.96875 -0.875 0  -0.9375 -0.875 0  -0.90625 -0.875 0  -0.875 -0.875 0  -0.84375 -0.875 0  -0.8125 -0.875 0  -0.78125 -0.875 0  -0.75 -0.875 0  -0.71875 -0.875 0  -0.6875 -0.875 0  -0.65625 -0.875 0  -0.625 -0.875 0  -0.59375 -0.875 0  -0.5625 -0.875 0  -0.53125 -0.875 0  -0.5 -0.875 0  -0.46875 -0.875 0  -0.4375 -0.875 0  -0.40625 -0.875 0  -0.375 -0.875 0  -0.34375 -0.875 0  -0.3125 -0.875 0  -0.28125 -0.875 0  -0.25 -0.875 0  -0.21875 -0.875 0  -0.1875 -0.875 0  -0.15625 -0.875 0  -0.125 -0.875 0  -0.09375 -0.875 0  -0.0625 -0.875 0  -0.03125 -0.875 0  0 -0.875 0  0.03125 -0.875 0  0.0625 -0.875 0  0.09375 -0.875 0  0.125 -0.875 0  0.15625 -0.875 0  0.1875 -0.875 0  0.21875 -0.875 0  0.25 -0.875 0  0.28125 -0.875 0  0.3125 -0.875 0  0.34375 -0.875 0  0.375 -0.875 0  0.40625 -0.875 0  0.4375 -0.875 0  0.46875 -0.875 0  0.5 -0.875 0  0.53125 -0.875 0  0.5625 -0.875 0  0.59375 -0.875 0  0.625 -0.875 0  0.65625 -0.875 0  0.6875 -0.875 0  0.71875 -0.875 0  0.75 -0.875 0  0.78125 -0.875 0  0.8125 -0.875 0  0.84375 -0.875 0  0.875 -0.875 0  0.90625 -0.875 0  0.9375 -0.875 0  0.96875 -0.875 0  1 -0.875 0  -1 -0.84375 0  -0.96875 -0.84375 0  -0.9375 -0.84375 0  -0.90625 -0.84375 0  -0.875 -0.84375 0  -0.84375 -0.84375 0  -0.8125 -0.84375 0  -0.78125 -0.84375 0  -0.75 -0.84375 0  -0.71875 -0.84375 0  -0.6875 -0.84375 0  -0.65625 -0.84375 0  -0.625 -0.84375 0  -0.59375 -0.84375 0  -0.5625 -0.84375 0  -0.53125 -0.84375 0  -0.5 -0.84375 0  -0.46875 -0.84375 0  -0.4375 -0.84375 0  -0.40625 -0.84375 0  -0.375 -0.84375 0  -0.34375 -0.84375 0  -0.3125 -0.84375 0  -0.28125 -0.84375 0  -0.25 -0.84375 0  -0.21875 -0.84375 0  -0.1875 -0.84375 0  -0.15625 -0.84375 0  -0.125 -0.84375 0  -0.09375 -0.84375 0  -0.0625 -0.84375 0  -0.03125 -0.84375 0  0 -0.84375 0  0.03125 -0.84375 0  0.0625 -0.84375 0  0.09375 -0.84375 0  0.125 -0.84375 0  0.15625 -0.84375 0  0.1875 -0.84375 0  0.21875 -0.84375 0  0.25 -0.84375 0  0.28125 -0.84375 0  0.3125 -0.84375 0  0.34375 -0.84375 0  0.375 -0.84375 0  0.40625 -0.84375 0  0.4375 -0.84375 0  0.46875 -0.84375 0  0.5 -0.84375 0  0.53125 -0.84375 0  0.5625 -0.84375 0  0.59375 -0.84375 0  0.625 -0.84375 0  0.65625 -0.84375 0  0.6875 -0.84375 0  0.71875 -0.84375 0  0.75 -0.84375 0  0.78125 -0.84375 0  0.8125 -0.84375 0  0.84375 -0.84375 0  0.875 -0.84375 0  0.90625 -0.84375 0  0.9375 -0.84375 0  0.96875 -0.84375 0  1 -0.84375 0  -1 -0.8125 0  -0.96875 -0.8125 0  -0.9375 -0.8125 0  -0.90625 -0.8125 0  -0.875 -0.8125 0  -0.84375 -0.8125 0  -0.8125 -0.8125 0  -0.78125 -0.8125 0  -0.75 -0.8125 0  -0.71875 -0.8125 0  -0.6875 -0.8125 0  -0.65625 -0.8125 0  -0.625 -0.8125 0  -0.59375 -0.8125 0  -0.5625 -0.8125 0  -0.53125 -0.8125 0  -0.5 -0.8125 0  -0.46875 -0.8125 0  -0.4375 -0.8125 0  -0.40625 -0.8125 0  -0.375 -0.8125 0  -0.34375 -0.8125 0  -0.3125 -0.8125 0  -0.28125 -0.8125 0  -0.25 -0.8125 0  -0.21875 -0.8125 0  -0.1875 -0.8125 0  -0.15625 -0.8125 0  -0.125 -0.8125 0  -0.09375 -0.8125 0  -0.0625 -0.8125 0  -0.03125 -0.8125 0  0 -0.8125 0  0.03125 -0.8125 0  0.0625 -0.8125 0  0.09375 -0.8125 0  0.125 -0.8125 0  0.15625 -0.8125 0  0.1875 -0.8125 0  0.21875 -0.8125 0  0.25 -0.8125 0  0.28125 -0.8125 0  0.3125 -0.8125 0  0.34375 -0.8125 0  0.375 -0.8125 0  0.40625 -0.8125 0  0.4375 -0.8125 0  0.46875 -0.8125 0  0.5 -0.8125 0  0.53125 -0.8125 0  0.5625 -0.8125 0  0.59375 -0.8125 0  0.625 -0.8125 0  0.65625 -0.8125 0  0.6875 -0.8125 0  0.71875 -0.8125 0  0.75 -0.8125 0  0.78125 -0.8125 0  0.8125 -0.8125 0  0.84375 -0.8125 0  0.875 -0.8125 0  0.90625 -0.8125 0  0.9375 -0.8125 0  0.96875 -0.8125 0  1 -0.8125 0  -1 -0.78125 0  -0.96875 -0.78125 0  -0.9375 -0.78125 0  -0.90625 -0.78125 0  -0.875 -0.78125 0  -0.84375 -0.78125 0  -0.8125 -0.78125 0  -0.78125 -0.78125 0  -0.75 -0.78125 0  -0.71875 -0.78125 0  -0.6875 -0.78125 0  -0.65625 -0.78125 0  -0.625 -0.78125 0  -0.59375 -0.78125 0  -0.5625 -0.78125 0  -0.53125 -0.78125 0  -0.5 -0.78125 0  -0.46875 -0.78125 0  -0.4375 -0.78125 0  -0.40625 -0.78125 0  -0.375 -0.78125 0  -0.34375 -0.78125 0  -0.3125 -0.78125 0  -0.28125 -0.78125 0  -0.25 -0.78125 0  -0.21875 -0.78125 0  -0.1875 -0.78125 0  -0.15625 -0.78125 0  -0.125 -0.78125 0  -0.09375 -0.78125 0  -0.0625 -0.78125 0  -0.03125 -0.78125 0  0 -0.78125 0  0.03125 -0.78125 0  0.0625 -0.78125 0  0.09375 -0.78125 0  0.125 -0.78125 0  0.15625 -0.78125 0  0.1875 -0.78125 0  0.21875 -0.78125 0  0.25 -0.78125 0  0.28125 -0.78125 0  0.3125 -0.78125 0  0.34375 -0.78125 0  0.375 -0.78125 0  0.40625 -0.78125 0  0.4375 -0.78125 0  0.46875 -0.78125 0  0.5 -0.78125 0  0.53125 -0.78125 0  0.5625 -0.78125 0  0.59375 -0.78125 0  0.625 -0.78125 0  0.65625 -0.78125 0  0.6875 -0.78125 0  0.71875 -0.78125 0  0.75 -0.78125 0  0.78125 -0.78125 0  0.8125 -0.78125 0  0.84375 -0.78125 0  0.875 -0.78125 0  0.90625 -0.78125 0  0.9375 -0.78125 0  0.96875 -0.78125 0  1 -0.78125 0  -1 -0.75 0  -0.96875 -0.75 0  -0.9375 -0.75 0  -0.90625 -0.75 0  -0.875 -0.75 0  -0.84375 -0.75 0  -0.8125 -0.75 0  -0.78125 -0.75 0  -0.75 -0.75 0  -0.71875 -0.75 0  -0.6875 -0.75 0  -0.65625 -0.75 0  -0.625 -0.75 0  -0.59375 -0.75 0  -0.5625 -0.75 0  -0.53125 -0.75 0  -0.5 -0.75 0  -0.46875 -0.75 0  -0.4375 -0.75 0  -0.40625 -0.75
[...]
<PointData  Scalars="f_15"> 
<DataArray  type="Float64"  Name="f_15"  format="ascii">-4.9313874622602533e-01  -4.8840098486050748e-01  -4.7436977027626365e-01  -4.5158431418097095e-01  -4.2092024887413976e-01  -3.8355597718890616e-01  -3.4092738713200893e-01  -2.9467267151294524e-01  -2.4656937311301255e-01  -1.9846607471308003e-01  -1.5221135909401637e-01  -1.0958276903711897e-01  -7.2218497351885375e-02  -4.1554432045054351e-02  -1.8768975949761464e-02  -4.7377613655177914e-03  0.0000000000000000e+00  -4.7377613655177914e-03  -1.8768975949761492e-02  -4.1554432045054386e-02  -7.2218497351885430e-02  -1.0958276903711903e-01  -1.5221135909401651e-01  -1.9846607471308014e-01  -2.4656937311301266e-01  -2.9467267151294524e-01  -3.4092738713200887e-01  -3.8355597718890633e-01  -4.2092024887413976e-01  -4.5158431418097095e-01  -4.7436977027626370e-01  -4.8840098486050748e-01  -4.9313874622602533e-01  -4.8840098486050748e-01  -4.7436977027626370e-01  -4.5158431418097095e-01  -4.2092024887413976e-01  -3.8355597718890633e-01  -3.4092738713200887e-01  -2.9467267151294524e-01  -2.4656937311301266e-01  -1.9846607471308014e-01  -1.5221135909401651e-01  -1.0958276903711903e-01  -7.2218497351885430e-02  -4.1554432045054386e-02  -1.8768975949761492e-02  -4.7377613655177914e-03  0.0000000000000000e+00  -4.7377613655177914e-03  -1.8768975949761464e-02  -4.1554432045054351e-02  -7.2218497351885375e-02  -1.0958276903711897e-01  -1.5221135909401637e-01  -1.9846607471308003e-01  -2.4656937311301255e-01  -2.9467267151294524e-01  -3.4092738713200893e-01  -3.8355597718890616e-01  -4.2092024887413976e-01  -4.5158431418097095e-01  -4.7436977027626365e-01  -4.8840098486050748e-01  -4.9313874622602533e-01  -4.8840098486050748e-01  -4.1449797405118122e-01  -3.0148409441863744e-01  -1.7299071276858158e-01  -3.7156404111871308e-02  1.0163753586696825e-01  2.4040454613166073e-01  3.7655079099224326e-01  5.0757982360874421e-01  6.3102750139130670e-01  7.4448418115993487e-01  8.4565409937317837e-01  9.3242929341541281e-01  1.0029658669968053e+00  1.0557551584142160e+00  1.0896843801994081e+00  1.1040830069782344e+00  1.0987519974770135e+00  1.0739743919067783e+00  1.0305065664458237e+00  9.6955086193362461e-01  8.9271095140026369e-01  8.0193253546788468e-01  6.9943230329271244e-01  5.8761887579518313e-01  4.6900936985976904e-01  3.4614550072994205e-01  2.2151270806603232e-01  9.7465614495872821e-02  -2.3837480122709944e-02  -1.4048881416600903e-01  -2.5087247018309972e-01  -3.5369176691723975e-01  -4.4798230317046089e-01  -5.3311093204225735e-01  -6.0876143002401573e-01  -6.7490837380651725e-01  -7.3178105461337806e-01  -7.7981991425243136e-01  -8.1962800794802937e-01  -8.5192038392198732e-01  -8.7747386508658687e-01  -8.9707975034725607e-01  -9.1150118149311132e-01  -9.2143667814116892e-01  -9.2749042978922014e-01  -9.3014971973846761e-01  -9.2976910312109362e-01  -9.2656105299760694e-01  -9.2059240533489550e-01  -9.1178643843686891e-01  -8.9993042302759729e-01  -8.8468926109491308e-01  -8.6562607006675341e-01  -8.4223154132837497e-01  -8.1396457692542923e-01  -7.8030944601768071e-01  -7.4083514096649294e-01  -6.9545346690718279e-01  -6.4377550482745116e-01  -5.8907217908383358e-01  -5.2503722758150195e-01  -4.8286202608506085e-01  -4.0113169969168849e-01  -4.8840098486050748e-01  -4.7436977027626365e-01  -4.5952717442891960e-01  -3.6112303121075157e-01  -2.6814908582647251e-01  -1.6941555151570559e-01  -6.8762839425743516e-02  3.1813771552771590e-02  1.3033735808971839e-01  2.2493772385585184e-01  3.1382176050903388e-01  3.9528696523305162e-01  4.6775447847343637e-01  5.2980995011037924e-01  5.8024504213065953e-01  6.1809501315161086e-01  6.4266977736334840e-01  6.5357647905216121e-01  6.5073277947059138e-01  6.3437016024484250e-01  6.0502740895586360e-01  5.6353438135012834e-01  5.1098687142016486e-01  4.4871328004725652e-01  3.7823438346686317e-01  3.0121735217578149e-01  2.1942570301468431e-01  1.3466671410394887e-01  4.8738195019917933e-02  -3.6623622675891934e-02  -1.1979316716057062e-01  -1.9929984943090689e-01  -2.7386601591462689e-01  -3.4243714540176845e-01  -4.0420327675784840e-01  -4.5861092055339175e-01  -5.0536523469428563e-01  -5.4442245990616378e-01  -5.7597321484966690e-01  -6.0041734126247770e-01  -6.1833156131774336e-01  -6.3043113855742683e-01  -6.3752726932694948e-01  -6.4048172739470011e-01  -6.4016073362356707e-01  -6.3738973528271248e-01  -6.3291116529067615e-01  -6.2734685401397128e-01  -6.2116704256461230e-01  -6.1466740464096392e-01  -6.0795565452231781e-01  -6.0094865348855198e-01  -5.9338100186601350e-01  -5.8482547312119448e-01  -5.7472586717542584e-01  -5.6244255932365483e-01  -5.4731201612027014e-01  -5.2872342477375855e-01  -5.0619556910819752e-01  -4.7966145615898786e-01  -4.4872958098301302e-01  -4.1725521573896396e-01  -3.7647558174301488e-01  -3.6789160436484708e-01  -2.7806894937614501e-01  -4.7436977027626365e-01  -4.5158431418097095e-01  -5.1412306570058575e-01  -3.8913161084756187e-01  -2.9463343673833203e-01  -1.9265181773723608e-01  -9.1185430717466640e-02  9.2462190318505135e-03  1.0699610766794419e-01  2.0051492524229622e-01  2.8825927358995801e-01  3.6873001797854560e-01  4.4051178756899556e-01  5.0231680174635807e-01  5.5302874398652424e-01  5.9174345064865064e-01  6.1780364989604719e-01  6.3082569830196666e-01  6.3071669605766101e-01  6.1768107208617118e-01  5.9221619461785435e-01  5.5509724758531576e-01  5.0735206465152438e-01  4.5022719877380091e-01  3.8514680736366713e-01  3.1366629733186319e-01  2.3742273472591421e-01  1.5808414442796656e-01  7.7299683362273344e-02  -3.3474506895230880e-03  -8.2382753835264846e-02  -1.5847742232648479e-01  -2.3047854119245770e-01  -2.9743167285469935e-01  -3.5859533278534128e-01  -4.1344716573712148e-01  -4.6168189717829611e-01  -5.0320146016584966e-01  -5.3809791422674857e-01  -5.6663009526728292e-01  -5.8919507434148966e-01  -6.0629576907092653e-01  -6.1850606799449148e-01  -6.2643500738437008e-01  -6.3069144016504608e-01  -6.3185067804558204e-01  -6.3042438468966122e-01  -6.2683497135998578e-01  -6.2139546468877460e-01  -6.1429577455470785e-01  -6.0559599658704277e-01  -5.9522740213889447e-01  -5.8300156196943365e-01  -5.6862815901593566e-01  -5.5174203567969649e-01  -5.3194037846982478e-01  -5.0883147528370154e-01  -4.8209862500107886e-01  -4.5155740285815132e-01  -4.1744562993035889e-01  -3.7945423424336977e-01  -3.4217539080624515e-01  -2.9360197044235681e-01  -2.8585323984225325e-01  -1.5583288863585656e-01  -4.5158431418097095e-01  -4.2092024887413976e-01  -5.7182882877309782e-01  -4.2393545045698416e-01  -3.3717837230178971e-01  -2.4006304356761804e-01  -1.4631661200205198e-01  -5.4376288890219900e-02  3.4313145869569336e-02  1.1862579981942710e-01  1.9736437531457465e-01  2.6935384261298090e-01  3.3348292635576698e-01  3.8874432471106374e-01  4.3427153928481449e-01  4.6937127009835006e-01  4.9355005443443617e-01  5.0653413057201513e-01  5.0828169083885244e-01  4.9898714573986824e-01  4.7907723354517445e-01  4.4919929950917920e-01  4.1020221573175203e-01  3.6311083826797080e-01  3.0909499445348204e-01  2.4943429860757671e-01  1.8548011288909133e-01  1.1861613805352576e-01  5.0219054713180514e-02  -1.8379319307770925e-02  -8.5927055972607733e-02  -1.5128310492077912e-01  -2.1344323789907857e-01  -2.7156013829484676e-01  -3.2495707196837326e-01  -3.7313484757261361e-01  -4.1577200157020522e-01  -4.5271845790763193e-01  -4.8398309609865936e-01  -5.0971594497354211e-01  -5.3018584363295018e-01  -5.4575463198419794e-01  -5.5684897142107725e-01  -5.6393103505648967e-01  -5.6746925073724352e-01  -5.6791036187493926e-01  -5.6565392439038353e-01  -5.6103036959020725e-01  -5.5428358743236383e-01  -5.4555894233325419e-01  -5.3489744292709351e-01  -5.2223673184767794e-01  -5.0741939303442996e-01  -4.9020909334794105e-01  -4.7031497618098345e-01  -4.4742486913798224e-01  -4.2124814184696047e-01  -3.9157060129218407e-01  -3.5829397416362696e-01  -3.2172708544653716e-01  -2.8139250333306487e-01  -2.4233616570145453e-01  -1.8911802605750444e-01  -1.8470224560902956e-01  -1.8723298293403717e-02  -4.2092024887413976e-01  -3.8355597718890616e-01  -6.2729148001277202e-01  -4.5722324119405316e-01  -3.7685036695291690e-01  -2.8165510441576003e-01  -1.9234275860137148e-01  -1.0534349124715049e-01  -2.2082173552887129e-02  5.6683583187973216e-02  1.3001765363450044e-01  1.9698478031052000e-01  2.5668741478365709e-01  3.0830560119492817e-01  3.5113163911054007e-01  3.8459959721349735e-01  4.0830937629161546e-01  4.2204461851304287e-01  4.2578406088291881e-01  4.1970589470423697e-01  4.0418519016662041e-01  3.7978444835159358e-01  3.4723787701433351e-01  3.0742998798645765e-01  2.6136955979696930e-01  2.1015995090462600e-01  1.5496705820295462e-01  9.6986098402569373e-02  3.7408542919364580e-02  -2.2609653512647092e-02  -8.1977368490169705e-02  -1.3969422172462023e-01  -1.9487224212302864e-01  -2.4675265733343274e-01  -2.9471737760912015e-01  -3.3829491467771233e-01  -3.7716076176973140e-01  -4.1113236693995664e-01  -4.4015914530710126e-01  -4.6430802519141384e-01  -4.8374532681417887e-01  -4.9871573395359070e-01  -5.0951938209958958e-01  -5.1648796951298948e-01  -5.1996101345592749e-01  -5.2026315460141648e-01  -5.1768358030667105e-01  -5.1245836844895665e-01  -5.0475667107322386e-01  -4.9467134781937772e-01  -4.8221475473499548e-01  -4.6732009336402414e-01  -4.4984883365632500e-01  -4.2960443264264264e-01  -4.0635272724417926e-01  -3.7984910354152324e-01  -3.4987286433582232e-01  -3.1627014868259107e-01  -2.7897308654112596e-01  -2.3829189804908807e-01  -1.9350733017921984e-01  -1.5006719891988213e-01  -8.9199116011757493e-02  -8.4922026290846692e-02  1.1830711600322398e-01  -3.8355597718890616e-01  -3.4092738713200893e-01  -6.7825326413854026e-01  -4.8748709029081450e-01  -4.1447098263489429e-01  -3.2169216447271870e-01  -2.3694318547302565e-01  -1.5476255135249686e-01  -7.6677176370582092e-02  -3.1443782605829074e-03  6.5109034297795923e-02  1.2735252169378186e-01  1.8287504408682731e-01  2.3102363267759346e-01  2.7123495835197092e-01  3.0306153114892914e-01  3.2619253799141740e-01  3.4046926866303834e-01  3.4589477394965767e-01  3.4263775625092219e-01  3.3103058388232764e-01  3.1156177953347913e-01  2.8486325264056800e-01  2.5169298587340971e-01  2.1291380243820635e-01  1.6946919764515250e-01  1.2235709197091760e-01  7.2602602176467024e-02  2.1230773699579573e-02  -3.0759679443731886e-02  -8.2420754064651783e-02  -1.3287680834039656e-01  -1.8134280103520134e-01  -2.2713857784588595e-01  -2.6969880367799065e-01  -3.0857836281275763e-01  -3.4345314660297294e-01  -3.7411642991778199e-01  -4.0047106910672892e-01  -4.2251805616299071e-01  -4.4034192280999968e-01  -4.5409378668641404e-01  -4.6397270265472701e-01  -4.7020624922345355e-01  -4.7303107916124382e-01  -4.7267439139269690e-01  -4.6933700668750911e-01  -4.6317892446053383e-01  -4.5430791185190716e-01  -4.4277185310124051e-01  -4.2855522474786867e-01  -4.1158022437153258e-01  -3.9171271820704007e-01  -3.6877332762001369e-01  -3.4255359346837083e-01  -3.1283724594075757e-01  -2.7942631002773544e-01  -2.4217303492864448e-01  -2.0098123374203497e-01  -1.5610427163050833e-01  -1.0654154891235043e-01  -5.8130131651438231e-02  1.1101879616037409e-02  1.6110131194623258e-02  2.5606270890314453e-01  -3.4092738713200893e-01  -2.9467267151294524e-01  -7.2380722594302449e-01  -5.1379568588974056e-01  -4.4881582374714368e-01  -3.5853090772087981e-01  -2.7800861549071959e-01  -2.0005794940162649e-01  -1.2640714819257629e-01  -5.7285495334136217e-02  6.7334391849819186e-03  6.5077957535976977e-02  1.1718421671960028e-01  1.6253218500147315e-01  2.0067376545159502e-01  2.3125577219710861e-01  2.5403813085856580e-01  2.6890723120996152e-01  2.7588438188142594e-01  2.7512931731412155e-01  2.6693883800020357e-01  2.5174077322782284e-01  2.3008362285326778e-01  2.0262235670327575e-01  1.7010099176174281e-01  1.3333265677830827e-01  9.3177938743279023e-02  5.0522337689791731e-02  6.2536684732933711e-03  -3.8759774254541156e-02  -8.3689528969424332e-02  -1.2776507621690916e-01  -1.7028916827577337e-01  -2.1064991892045665e-01  -2.4832933374250740e-01  -2.8290809699160568e-01  -3.1406658244377778e-01  -3.4158218946950258e-01  -3.6532325599842913e-01  -3.8523990309123390e-01  -4.0135230105399589e-01  -4.1373690323374407e-01  -4.2251129675920834e-01  -4.2781832615928284e-01  -4.2981020008190390e-01  -4.2863325169439842e-01  -4.2441404170628649e-01  -4.1724738962709795e-01  -4.0718692576011734e-01  -3.9423860108349140e-01  -3.7835758502370992e-01  -3.5944880070308161e-01  -3.3737131083192395e-01  -3.1194657562441441e-01  -2.8297052088829955e-01  -2.5022905163848025e-01  -2.1351665435586234e-01  -1.7265870219433019e-01  -1.2749828666034621e-01  -7.8204131445201455e-02  -2.3489846708938469e-02  3.0423345810080323e-02  1.0854926552501670e-01  1.1511295848637915e-01  3.9090270379154468e-01  -2.9467267151294524e-01  -2.4656937311301255e-01  -7.6374935153039913e-01  -5.3590131381843187e-01  -4.7946429221606163e-01  -3.9186516354512191e-01  -3.1547229882157257e-01  -2.4144837177681350e-01  -1.7179153211329529e-01  -1.0656341886319244e-01  -4.6232625829087437e-02  8.7485415877606425e-03  5.7930777140243292e-02  1.0089989981284694e-01  1.3730084420662633e-01  1.6685728713861453e-01  1.8938717768091523e-01  2.0481408986862179e-01  2.1317446201656887e-01  2.1462064485243101e-01  2.0941993568363215e-01  1.9794968233104521e-01  1.8068884883761360e-01  1.5820635266106453e-01  1.3114676651582344e-01  1.0021388152007511e-01  6.6152856853551587e-02  2.9731565040101517e-02  -8.2781177881411719e-03  -4.7118460911880815e-02  -8.6062795566954647e-02  -1.2443066237140239e-01  -1.6160069356807905e-01  -1.9702084977584475e-01  -2.3021574490158642e-01  -2.6079088103458986e-01  -2.8843378683972504e-01  -3.1291210003777920e-01  -3.3406882903321344e-01  -3.5181504234095140e-01  -3.6612042069713524e-01  -3.7700207523943857e-01  -3.8451220423443211e-01  -3.8872507785605098e-01  -3.8972398404207714e-01  -3.8758863098409885e-01  -3.8238361041331276e-01  -3.7414836922433692e-01  -3.6288918152249433e-01  -3.4857344824457526e-01  -3.3112665912799311e-01  -3.1043216254848666e-01  -2.8633387350314260e-01  -2.5864181062696345e-01  -2.2714030215233755e-01  -1.9159836670671918e-01  -1.5178181106646141e-01  -1.0746771579481283e-01  -5.8419945281509185e-02  -4.7090023832136391e-03  5.5226894377552023e-02  1.1480193299157504e-01  2.0188172457727768e-01  2.1048597690626855e-01  5.2059295525641591e-01  -2.4656937311301255e-01  -1.9846607471308003e-01  -7.9827107344777892e-01  -5.5399055540134146e-01  -5.0635018467536230e-01  -4.2157341693994171e-01  -3.4921459348927858e-01  -2.7886341021134436e-01  -2.1283572058565198e-01  -1.5107140413042744e-01  -9.3972903204246352e-02  -4.1906297471780193e-02  4.7655443359911733e-03  4.5710643038169435e-02  8.0647466223452063e-02  1.0936111344467658e-01  1.3171614138398452e-01  1.4766601829090734e-01  1.5725910498560680e-01  1.6064124870675267e-01  1.5805497733835397e-01  1.4983553284955081e-01  1.3640390311759273e-01  1.1825726212404107e-01  9.5957147558135669e-02  7.0115930303083662e-02  4.1382032847673438e-02  1.0424514469625173e-02  -2.2082471915550191e-02  -5.5474746440884667e-02  -8.9112214140275647e-02  -1.2239152748330677e-01  -1.5475691365848354e-01  -1.8570883958158116e-01  -2.1481027662147403e-01  -2.4169044519439034e-01  -2.6604597446280576e-01  -2.8763956711056321e-01  -3.0629628464533309e-01  -3.2189772895060276e-01  -3.3437438459135671e-01  -3.4369654235798941e-01  -3.4986416924979014e-01  -3.5289623057541747e-01  -3.5281985895877971e-01  -3.4965989489266391e-01  -3.4342917261220146e-01  -3.3412000718490403e-01  -3.2169717829061423e-01  -3.0609274310459678e-01  -2.8720283414721415e-01  -2.6488660165475514e-01  -2.3896724334173466e-01  -2.0923505441302767e-01  -1.7545215858991783e-01  -1.3735847363224529e-01  -9.4678383854842854e-02  -4.7129012049403916e-02  5.6129365100726514e-03  6.3579655009679714e-02  1.2858831936169299e-01  1.9372609825984999e-01  2.8946746279488605e-01  3.0039535564872544e-01  6.4263167336124094e-01  -1.9846607471308003e-01  -1.5221135909401637e-01  -8.2777709684871192e-01  -5.6851909676012802e-01  -5.2965176769535083e-01  -4.4774620356036610e-01  -3.7929650200536275e-01  -3.1239102524974321e-01  -2.4968693665239816e-01  -1.9103458398207404e-01  -1.3679905200029616e-01  -8.7286046443110027e-02  -4.2794556964847595e-02  -3.5936328643613796e-03  3.0092731629907714e-02  5.8098319426917490e-02  8.0324924996559466e-02  9.6749888431773040e-02  1.0743089600126141e-01  1.1250798569964338e-01  1.1220284212170693e-01  1.0681545055577149e-01  9.6718345266899819e-02  8.2348674082358714e-02  6.4198452401067613e-02  4.2803349138723780e-02  1.8730474987760811e-02  -7.4344129132861286e-03  -3.5099790453636120e-02  -6.3680911945466045e-02  -9.2611565119960632e-02  -1.2135466734345356e-01  -1.4941135858963447e-01  -1.7632832567555629e-01  -2.0170316271000474e-01  -2.2518764226618104e-01  -2.4648887072978648e-01  -2.6536835322678670e-01  -2.8163910409392717e-01  -2.9516096942950498e-01  -3.0583443532904214e-01  -3.1359319013222420e-01  -3.1839581219915503e-01  -3.2021690595608088e-01  -3.1903809995752380e-01  -3.1483922768890021e-01  -3.0759008190158926e-01  -2.9724301637436523e-01  -2.8372669837082054e-01  -2.6694118052195576e-01  -2.4675445948886193e-01  -2.2300052944232199e-01  -1.9547891055947036e-01  -1.6395543617902139e-01  -1.2816402552652667e-01  -8.7808907853712273e-02  -4.2566908637111517e-02  7.9092099052024169e-03  6.4030405266404383e-02  1.2593039704668166e-01  1.9565435284160895e-01  2.6601756422977435e-01  3.6979559038635268e-01  3.8315036063219166e-01  7.5462311064594301e-01  -1.5221135909401637e-01  -1.0958276903711897e-01  -8.5276713570458695e-01  -5.8009158102050085e-01  -5.4969284498332671e-01  -4.7060749085333198e-01  -4.0588491685030403e-01  -3.4219236019294819e-01  -2.8253241675199414e-01  -2.2668715943852641e-01  -1.7500376568401069e-01  -1.2774629490672390e-01  -8.5166888846530189e-02  -4.7486625772278461e-02  -1.4884609658677737e-02  1.2511485291540279e-02  3.4633151918062717e-02  5.1476791317853751e-02  6.3107330451302110e-02  6.9659651523801408e-02  7.1337837805904858e-02  6.8412309631540616e-02  6.1214991211445489e-02  5.0132716835597876e-02  3.5599132259476203e-02  1.8085410843576046e-02  -1.9098801841618347e-03  -2.3871380987936234e-02  -4.7277648042757088e-02  -7.1611581305820876e-02  -9.6370231554767011e-02  -1.2107365699720288e-01  -1.4527255997141536e-01  -1.6855447121979517e-01  -1.9054832084165577e-01  -2.1092728802691635e-01  -2.2940989741839751e-01  -2.4575938488882418e-01  -2.5978142744551913e-01  -2.7132038283098853e-01  -2.8025423592273180e-01  -2.8648849436407181e-01  -2.8994929714062256e-01  -2.9057603449457237e-01  -2.8831376238987749e-01  -2.8310571582042410e-01  -2.7488617971445184e-01  -2.6357397073081573e-01  -2.4906671497039459e-01  -2.3123607404305602e-01  -2.0992398468431758e-01  -1.8493991334347862e-01  -1.5605901828528754e-01  -1.2302102794155390e-01  -8.5529502134231203e-02  -4.3251017936339765e-02  4.1860799512874556e-03  5.7192230110413689e-02  1.1626107216612876e-01  1.8162252396078463e-01  2.5551571430525294e-01  3.3055449045667690e-01  4.4143830659685557e-01  4.5716843705143045e-01  8.5427942922483957e-01  -1.0958276903711897e-01  -7.2218497351885375e-02  -8.7375449840849939e-01  -5.8936927842560405e-01  -5.6686531266505980e-01  -4.9045250504413157e-01  -4.2920746418195144e-01  -3.6847332549688233e-01  -3.1158562878781604e-01  -2.5827075914639452e-01  -2.0886929035309298e-01  -1.6361593178372408e-01  -1.2272787779852974e-01  -8.6389115366647853e-02  -5.4743310180345083e-02  -2.7887305929915843e-02  -5.8656712726711463e-03  1.1333388876569860e-02  2.3780543522890107e-02  3.1606191580095006e-02  3.4999597889218220e-02  3.4206372950762176e-02  2.9524363536748515e-02  2.1298131811317168e-02  9.9122081389609856e-03  -4.2166217977576172e-03  -2.0647727067970641e-02  -3.8925437562467