<?xml version="1.0"?>
<VTKFile type="UnstructuredGrid"  version="0.1"  >
<UnstructuredGrid>
<Piece  NumberOfPoints="4225" NumberOfCells="8192">
<Points>
<DataArray  type="Float64"  NumberOfComponents="3"  format="ascii">-1 -1 0  -0.96875 -1 0  -0.9375 -1 0  -0.90625 -1 0  -0.875 -1 0  -0.84375 -1 0  -0.8125 -1 0  -0.78125 -1 0  -0.75 -1 0  -0.71875 -1 0  -0.6875 -1 0  -0.65625 -1 0  -0.625 -1 0  -0.59375 -1 0  -0.5625 -1 0  -0.53125 -1 0  -0.5 -1 0  -0.46875 -1 0  -0.4375 -1 0  -0.40625 -1 0  -0.375 -1 0  -0.34375 -1 0  -0.3125 -1 0  -0.28125 -1 0  -0.25 -1 0  -0.21875 -1 0  -0.1875 -1 0  -0.15625 -1 0  -0.125 -1 0  -0.09375 -1 0  -0.0625 -1 0  -0.03125 -1 0  0 -1 0  0.03125 -1 0  0.0625 -1 0  0.09375 -1 0  0.125 -1 0  0.15625 -1 0  0.1875 -1 0  0.21875 -1 0  0.25 -1 0  0.28125 -1 0  0.3125 -1 0  0.34375 -1 0  0.375 -1 0  0.40625 -1 0  0.4375 -1 0  0.46875 -1 0  0.5 -1 0  0.53125 -1 0  0.5625 -1 0  0.59375 -1 0  0.625 -1 0  0.65625 -1 0  0.6875 -1 0  0.71875 -1 0  0.75 -1 0  0.78125 -1 0  0.8125 -1 0  0.84375 -1 0  0.875 -1 0  0.90625 -1 0  0.9375 -1 0  0.96875 -1 0  1 -1 0  -1 -0.96875 0  -0.96875 -0.96875 0  -0.9375 -0.96875 0  -0.90625 -0.96875 0  -0.875 -0.96875 0  -0.84375 -0.96875 0  -0.8125 -0.96875 0  -0.78125 -0.96875 0  -0.75 -0.96875 0  -0.71875 -0.96875 0  -0.6875 -0.96875 0  -0.65625 -0.96875 0  -0.625 -0.96875 0  -0.59375 -0.96875 0  -0.5625 -0.96875 0  -0.53125 -0.96875 0  -0.5 -0.96875 0  -0.46875 -0.96875 0  -0.4375 -0.96875 0  -0.40625 -0.96875 0  -0.375 -0.96875 0  -0.34375 -0.96875 0  -0.3125 -0.96875 0  -0.28125 -0.96875 0  -0.25 -0.96875 0  -0.21875 -0.96875 0  -0.1875 -0.96875 0  -0.15625 -0.96875 0  -0.125 -0.96875 0  -0.09375 -0.96875 0  -0.0625 -0.96875 0  -0.03125 -0.96875 0  0 -0.96875 0  0.03125 -0.96875 0  0.0625 -0.96875 0  0.09375 -0.96875 0  0.125 -0.96875 0  0.15625 -0.96875 0  0.1875 -0.96875 0  0.21875 -0.96875 0  0.25 -0.96875 0  0.28125 -0.96875 0  0.3125 -0.96875 0  0.34375 -0.96875 0  0.375 -0.96875 0  0.40625 -0.96875 0  0.4375 -0.96875 0  0.46875 -0.96875 0  0.5 -0.96875 0  0.53125 -0.96875 0  0.5625 -0.96875 0  0.59375 -0.96875 0  0.625 -0.96875 0  0.65625 -0.96875 0  0.6875 -0.96875 0  0.71875 -0.96875 0  0.75 -0.96875 0  0.78125 -0.96875 0  0.8125 -0.96875 0  0.84375 -0.96875 0  0.875 -0.96875 0  0.90625 -0.96875 0  0.9375 -0.96875 0  0.96875 -0.96875 0  1 -0.96875 0  -1 -0.9375 0  -0.96875 -0.9375 0  -0.9375 -0.9375 0  -0.90625 -0.9375 0  -0.875 -0.9375 0  -0.84375 -0.9375 0  -0.8125 -0.9375 0  -0.78125 -0.9375 0  -0.75 -0.9375 0  -0.71875 -0.9375 0  -0.6875 -0.9375 0  -0.65625 -0.9375 0  -0.625 -0.9375 0  -0.59375 -0.9375 0  -0.5625 -0.9375 0  -0.53125 -0.9375 0  -0.5 -0.9375 0  -0.46875 -0.9375 0  -0.4375 -0.9375 0  -0.40625 -0.9375 0  -0.375 -0.9375 0  -0.34375 -0.9375 0  -0.3125 -0.9375 0  -0.28125 -0.9375 0  -0.25 -0.9375 0  -0.21875 -0.9375 0  -0.1875 -0.9375 0  -0.15625 -0.9375 0  -0.125 -0.9375 0  -0.09375 -0.9375 0  -0.0625 -0.9375 0  -0.03125 -0.9375 0  0 -0.9375 0  0.03125 -0.9375 0  0.0625 -0.9375 0  0.09375 -0.9375 0  0.125 -0.9375 0  0.15625 -0.9375 0  0.1875 -0.9375 0  0.21875 -0.9375 0  0.25 -0.9375 0  0.28125 -0.9375 0  0.3125 -0.9375 0  0.34375 -0.9375 0  0.375 -0.9375 0  0.40625 -0.9375 0  0.4375 -0.9375 0  0.46875 -0.9375 0  0.5 -0.9375 0  0.53125 -0.9375 0  0.5625 -0.9375 0  0.59375 -0.9375 0  0.625 -0.9375 0  0.65625 -0.9375 0  0.6875 -0.9375 0  0.71875 -0.9375 0  0.75 -0.9375 0  0.78125 -0.9375 0  0.8125 -0.9375 0  0.84375 -0.9375 0  0.875 -0.9375 0  0.90625 -0.9375 0  0.9375 -0.9375 0  0.96875 -0.9375 0  1 -0.9375 0  -1 -0.90625 0  -0.96875 -0.90625 0  -0.9375 -0.90625 0  -0.90625 -0.90625 0  -0.875 -0.90625 0  -0.84375 -0.90625 0  -0.8125 -0.90625 0  -0.78125 -0.90625 0  -0.75 -0.90625 0  -0.71875 -0.90625 0  -0.6875 -0.90625 0  -0.65625 -0.90625 0  -0.625 -0.90625 0  -0.59375 -0.90625 0  -0.5625 -0.90625 0  -0.53125 -0.90625 0  -0.5 -0.90625 0  -0.46875 -0.90625 0  -0.4375 -0.90625 0  -0.40625 -0.90625 0  -0.375 -0.90625 0  -0.34375 -0.90625 0  -0.3125 -0.90625 0  -0.28125 -0.90625 0  -0.25 -0.90625 0  -0.21875 -0.90625 0  -0.1875 -0.90625 0  -0.15625 -0.90625 0  -0.125 -0.90625 0  -0.09375 -0.90625 0  -0.0625 -0.90625 0  -0.03125 -0.90625 0  0 -0.90625 0  0.03125 -0.90625 0  0.0625 -0.90625 0  0.09375 -0.90625 0  0.125 -0.90625 0  0.15625 -0.90625 0  0.1875 -0.90625 0  0.21875 -0.90625 0  0.25 -0.90625 0  0.28125 -0.90625 0  0.3125 -0.90625 0  0.34375 -0.90625 0  0.375 -0.90625 0  0.40625 -0.90625 0  0.4375 -0.90625 0  0.46875 -0.90625 0  0.5 -0.90625 0  0.53125 -0.90625 0  0.5625 -0.90625 0  0.59375 -0.90625 0  0.625 -0.90625 0  0.65625 -0.90625 0  0.6875 -0.90625 0  0.71875 -0.90625 0  0.75 -0.90625 0  0.78125 -0.90625 0  0.8125 -0.90625 0  0.84375 -0.90625 0  0.875 -0.90625 0  0.90625 -0.90625 0  0.9375 -0.90625 0  0.96875 -0.90625 0  1 -0.90625 0  -1 -0.875 0  -0.96875 -0.875 0  -0.9375 -0.875 0  -0.90625 -0.875 0  -0.875 -0.875 0  -0.84375 -0.875 0  -0.8125 -0.875 0  -0.78125 -0.875 0  -0.75 -0.875 0  -0.71875 -0.875 0  -0.6875 -0.875 0  -0.65625 -0.875 0  -0.625 -0.875 0  -0.59375 -0.875 0  -0.5625 -0.875 0  -0.53125 -0.875 0  -0.5 -0.875 0  -0.46875 -0.875 0  -0.4375 -0.875 0  -0.40625 -0.875 0  -0.375 -0.875 0  -0.34375 -0.875 0  -0.3125 -0.875 0  -0.28125 -0.875 0  -0.25 -0.875 0  -0.21875 -0.875 0  -0.1875 -0.875 0  -0.15625 -0.875 0  -0.125 -0.875 0  -0.09375 -0.875 0  -0.0625 -0.875 0  -0.03125 -0.875 0  0 -0.875 0  0.03125 -0.875 0  0.0625 -0.875 0  0.09375 -0.875 0  0.125 -0.875 0  0.15625 -0.875 0  0.1875 -0.875 0  0.21875 -0.875 0  0.25 -0.875 0  0.28125 -0.875 0  0.3125 -0.875 0  0.34375 -0.875 0  0.375 -0.875 0  0.40625 -0.875 0  0.4375 -0.875 0  0.46875 -0.875 0  0.5 -0.875 0  0.53125 -0.875 0  0.5625 -0.875 0  0.59375 -0.875 0  0.625 -0.875 0  0.65625 -0.875 0  0.6875 -0.875 0  0.71875 -0.875 0  0.75 -0.875 0  0.78125 -0.875 0  0.8125 -0.875 0  0.84375 -0.875 0  0.875 -0.875 0  0.90625 -0.875 0  0.9375 -0.875 0  0.96875 -0.875 0  1 -0.875 0  -1 -0.84375 0  -0.96875 -0.84375 0  -0.9375 -0.84375 0  -0.90625 -0.84375 0  -0.875 -0.84375 0  -0.84375 -0.84375 0  -0.8125 -0.84375 0  -0.78125 -0.84375 0  -0.75 -0.84375 0  -0.71875 -0.84375 0  -0.6875 -0.84375 0  -0.65625 -0.84375 0  -0.625 -0.84375 0  -0.59375 -0.84375 0  -0.5625 -0.84375 0  -0.53125 -0.84375 0  -0.5 -0.84375 0  -0.46875 -0.84375 0  -0.4375 -0.84375 0  -0.40625 -0.84375 0  -0.375 -0.84375 0  -0.34375 -0.84375 0  -0.3125 -0.84375 0  -0.28125 -0.84375 0  -0.25 -0.84375 0  -0.21875 -0.84375 0  -0.1875 -0.84375 0  -0.15625 -0.84375 0  -0.125 -0.84375 0  -0.09375 -0.84375 0  -0.0625 -0.84375 0  -0.03125 -0.84375 0  0 -0.84375 0  0.03125 -0.84375 0  0.0625 -0.84375 0  0.09375 -0.84375 0  0.125 -0.84375 0  0.15625 -0.84375 0  0.1875 -0.84375 0  0.21875 -0.84375 0  0.25 -0.84375 0  0.28125 -0.84375 0  0.3125 -0.84375 0  0.34375 -0.84375 0  0.375 -0.84375 0  0.40625 -0.84375 0  0.4375 -0.84375 0  0.46875 -0.84375 0  0.5 -0.84375 0  0.53125 -0.84375 0  0.5625 -0.84375 0  0.59375 -0.84375 0  0.625 -0.84375 0  0.65625 -0.84375 0  0.6875 -0.84375 0  0.71875 -0.84375 0  0.75 -0.84375 0  0.78125 -0.84375 0  0.8125 -0.84375 0  0.84375 -0.84375 0  0.875 -0.84375 0  0.90625 -0.84375 0  0.9375 -0.84375 0  0.96875 -0.84375 0  1 -0.84375 0  -1 -0.8125 0  -0.96875 -0.8125 0  -0.9375 -0.8125 0  -0.90625 -0.8125 0  -0.875 -0.8125 0  -0.84375 -0.8125 0  -0.8125 -0.8125 0  -0.78125 -0.8125 0  -0.75 -0.8125 0  -0.71875 -0.8125 0  -0.6875 -0.8125 0  -0.65625 -0.8125 0  -0.625 -0.8125 0  -0.59375 -0.8125 0  -0.5625 -0.8125 0  -0.53125 -0.8125 0  -0.5 -0.8125 0  -0.46875 -0.8125 0  -0.4375 -0.8125 0  -0.40625 -0.8125 0  -0.375 -0.8125 0  -0.34375 -0.8125 0  -0.3125 -0.8125 0  -0.28125 -0.8125 0  -0.25 -0.8125 0  -0.21875 -0.8125 0  -0.1875 -0.8125 0  -0.15625 -0.8125 0  -0.125 -0.8125 0  -0.09375 -0.8125 0  -0.0625 -0.8125 0  -0.03125 -0.8125 0  0 -0.8125 0  0.03125 -0.8125 0  0.0625 -0.8125 0  0.09375 -0.8125 0  0.125 -0.8125 0  0.15625 -0.8125 0  0.1875 -0.8125 0  0.21875 -0.8125 0  0.25 -0.8125 0  0.28125 -0.8125 0  0.3125 -0.8125 0  0.34375 -0.8125 0  0.375 -0.8125 0  0.40625 -0.8125 0  0.4375 -0.8125 0  0.46875 -0.8125 0  0.5 -0.8125 0  0.53125 -0.8125 0  0.5625 -0.8125 0  0.59375 -0.8125 0  0.625 -0.8125 0  0.65625 -0.8125 0  0.6875 -0.8125 0  0.71875 -0.8125 0  0.75 -0.8125 0  0.78125 -0.8125 0  0.8125 -0.8125 0  0.84375 -0.8125 0  0.875 -0.8125 0  0.90625 -0.8125 0  0.9375 -0.8125 0  0.96875 -0.8125 0  1 -0.8125 0  -1 -0.78125 0  -0.96875 -0.78125 0  -0.9375 -0.78125 0  -0.90625 -0.78125 0  -0.875 -0.78125 0  -0.84375 -0.78125 0  -0.8125 -0.78125 0  -0.78125 -0.78125 0  -0.75 -0.78125 0  -0.71875 -0.78125 0  -0.6875 -0.78125 0  -0.65625 -0.78125 0  -0.625 -0.78125 0  -0.59375 -0.78125 0  -0.5625 -0.78125 0  -0.53125 -0.78125 0  -0.5 -0.78125 0  -0.46875 -0.78125 0  -0.4375 -0.78125 0  -0.40625 -0.78125 0  -0.375 -0.78125 0  -0.34375 -0.78125 0  -0.3125 -0.78125 0  -0.28125 -0.78125 0  -0.25 -0.78125 0  -0.21875 -0.78125 0  -0.1875 -0.78125 0  -0.15625 -0.78125 0  -0.125 -0.78125 0  -0.09375 -0.78125 0  -0.0625 -0.78125 0  -0.03125 -0.78125 0  0 -0.78125 0  0.03125 -0.78125 0  0.0625 -0.78125 0  0.09375 -0.78125 0  0.125 -0.78125 0  0.15625 -0.78125 0  0.1875 -0.78125 0  0.21875 -0.78125 0  0.25 -0.78125 0  0.28125 -0.78125 0  0.3125 -0.78125 0  0.34375 -0.78125 0  0.375 -0.78125 0  0.40625 -0.78125 0  0.4375 -0.78125 0  0.46875 -0.78125 0  0.5 -0.78125 0  0.53125 -0.78125 0  0.5625 -0.78125 0  0.59375 -0.78125 0  0.625 -0.78125 0  0.65625 -0.78125 0  0.6875 -0.78125 0  0.71875 -0.78125 0  0.75 -0.78125 0  0.78125 -0.78125 0  0.8125 -0.78125 0  0.84375 -0.78125 0  0.875 -0.78125 0  0.90625 -0.78125 0  0.9375 -0.78125 0  0.96875 -0.78125 0  1 -0.78125 0  -1 -0.75 0  -0.96875 -0.75 0  -0.9375 -0.75 0  -0.90625 -0.75 0  -0.875 -0.75 0  -0.84375 -0.75 0  -0.8125 -0.75 0  -0.78125 -0.75 0  -0.75 -0.75 0  -0.71875 -0.75 0  -0.6875 -0.75 0  -0.65625 -0.75 0  -0.625 -0.75 0  -0.59375 -0.75 0  -0.5625 -0.75 0  -0.53125 -0.75 0  -0.5 -0.75 0  -0.46875 -0.75 0  -0.4375 -0.75 0  -0.40625 -0.75
[...]
<PointData  Scalars="f_15"> 
<DataArray  type="Float64"  Name="f_15"  format="ascii">-4.6717558014920119e-01  -4.6268725626168861e-01  -4.4939476836906700e-01  -4.2780893932653707e-01  -3.9875930043873037e-01  -3.6336221303688027e-01  -3.2297796733892475e-01  -2.7915850725929015e-01  -2.3358779007460054e-01  -1.8801707288991090e-01  -1.4419761281027621e-01  -1.0381336711232081e-01  -6.8416279710470734e-02  -3.9366640822664063e-02  -1.7780811780133986e-02  -4.4883238875125233e-03  0.0000000000000000e+00  -4.4883238875125233e-03  -1.7780811780134013e-02  -3.9366640822664091e-02  -6.8416279710470790e-02  -1.0381336711232088e-01  -1.4419761281027638e-01  -1.8801707288991099e-01  -2.3358779007460059e-01  -2.7915850725929015e-01  -3.2297796733892475e-01  -3.6336221303688032e-01  -3.9875930043873037e-01  -4.2780893932653707e-01  -4.4939476836906705e-01  -4.6268725626168861e-01  -4.6717558014920119e-01  -4.6268725626168861e-01  -4.4939476836906705e-01  -4.2780893932653707e-01  -3.9875930043873037e-01  -3.6336221303688032e-01  -3.2297796733892475e-01  -2.7915850725929015e-01  -2.3358779007460059e-01  -1.8801707288991099e-01  -1.4419761281027638e-01  -1.0381336711232088e-01  -6.8416279710470790e-02  -3.9366640822664091e-02  -1.7780811780134013e-02  -4.4883238875125233e-03  0.0000000000000000e+00  -4.4883238875125233e-03  -1.7780811780133986e-02  -3.9366640822664063e-02  -6.8416279710470734e-02  -1.0381336711232081e-01  -1.4419761281027621e-01  -1.8801707288991090e-01  -2.3358779007460054e-01  -2.7915850725929015e-01  -3.2297796733892475e-01  -3.6336221303688027e-01  -3.9875930043873037e-01  -4.2780893932653707e-01  -4.4939476836906700e-01  -4.6268725626168861e-01  -4.6717558014920119e-01  -4.6268725626168861e-01  -3.3416227583794839e-01  -2.9157326481360890e-01  -2.2899421013472088e-01  -1.5728640655570411e-01  -7.9015495899524210e-02  3.2954809625092940e-03  8.7386452913345042e-02  1.7110341329284950e-01  2.5235066821081764e-01  3.2909420815161472e-01  3.9939796895692853e-01  4.6147776882846298e-01  5.1376103220082636e-01  5.5494381136972315e-01  5.8403950509696645e-01  6.0041604179953012e-01  6.0381958600726593e-01  5.9438371029841452e-01  5.7262307095394049e-01  5.3941081364548826e-01  4.9593890272954105e-01  4.4366127986769155e-01  3.8422093030571325e-01  3.1936429915519748e-01  2.5084926486149695e-01  1.8035574243399988e-01  1.0940926400916799e-01  3.9326766048935778e-02  -2.8810281866183344e-02  -9.4156156331676136e-02  -1.5608093762047529e-01  -2.1413987577227298e-01  -2.6804108623477768e-01  -3.1761729307725828e-01  -3.6280285292169262e-01  -4.0361409519832642e-01  -4.4012978782605605e-01  -4.7246974729776203e-01  -5.0077162745732262e-01  -5.2516821565415350e-01  -5.4576852191837155e-01  -5.6264606526967786e-01  -5.7583641213733083e-01  -5.8534448891566571e-01  -5.9116016841218266e-01  -5.9327934334913113e-01  -5.9172656995517214e-01  -5.8657533630986325e-01  -5.7796221019379113e-01  -5.6609240982072606e-01  -5.5123542474301779e-01  -5.3371199389916291e-01  -5.1387305006693207e-01  -4.9208196023121864e-01  -4.6868483371787106e-01  -4.4405378454554728e-01  -4.1848405878456491e-01  -3.9275391540388938e-01  -3.6704637661749290e-01  -3.4565164757976369e-01  -3.2527947097947074e-01  -3.3265436812642907e-01  -3.1158081670038223e-01  -4.6268725626168861e-01  -4.4939476836906700e-01  -3.2191575827303748e-01  -3.1522022030618868e-01  -2.7199369266304274e-01  -2.2375052789408553e-01  -1.6993528033318184e-01  -1.1254610018763891e-01  -5.3283220219944923e-02  6.2089757511574516e-03  6.4327994350084322e-02  1.1951341018092328e-01  1.7027297474660008e-01  2.1522617697929947e-01  2.5315595303846106e-01  2.8306008197599430e-01  3.0419591545595587e-01  3.1611392679257083e-01  3.1867735785086748e-01  3.1206611011716506e-01  2.9676393052480626e-01  2.7352837208167008e-01  2.4334412981182713e-01  2.0736164009304484e-01  1.6682510832681549e-01  1.2299639128318068e-01  7.7083301668385951e-02  3.0181324476258001e-02  -1.6763849621240501e-02  -6.2969580927575194e-02  -1.0780711461013204e-01  -1.5077657562539196e-01  -1.9147539126312835e-01  -2.2956916221539697e-01  -2.6477138422884072e-01  -2.9683449025356579e-01  -3.2555121258359054e-01  -3.5076289342851774e-01  -3.7237081268722344e-01  -3.9034693392145547e-01  -4.0474163447786815e-01  -4.1568675626337920e-01  -4.2339315775772174e-01  -4.2814214120956312e-01  -4.3027072269534355e-01  -4.3015111117108201e-01  -4.2816583864933300e-01  -4.2468074485186624e-01  -4.2001905119012939e-01  -4.1443991262928720e-01  -4.0812481146830976e-01  -4.0117410938689374e-01  -3.9361471637045126e-01  -3.8541891404481904e-01  -3.7653045188506945e-01  -3.6690357106273658e-01  -3.5652721452362435e-01  -3.4552723187362061e-01  -3.3406140418127700e-01  -3.2298309508398793e-01  -3.1229177294576671e-01  -3.0674440729589619e-01  -2.9975918489453962e-01  -3.2210464205742367e-01  -2.8718312267702839e-01  -4.4939476836906700e-01  -4.2780893932653707e-01  -3.2226037575070793e-01  -3.0469555758929640e-01  -2.5768906464498437e-01  -2.0822780846825947e-01  -1.5305271498259665e-01  -9.4440646151666793e-02  -3.3915439166044607e-02  2.6964880063019944e-02  8.6647659435627467e-02  1.4358852742294564e-01  1.9628131992062761e-01  2.4330592334536411e-01  2.8338653022632310e-01  3.1545184963200662e-01  3.3868956863992894e-01  3.5258894541065205e-01  3.5696705361958903e-01  3.5197586114151663e-01  3.3808872500379450e-01  3.1606641897920840e-01  2.8690449843327220e-01  2.5176591084916938e-01  2.1190490766205836e-01  1.6859011048613695e-01  1.2303521667982732e-01  7.6344866561943336e-02  2.9480492152130760e-02  -1.6752825343817314e-02  -6.1701296948264844e-02  -1.0484479485978171e-01  -1.4577338177042903e-01  -1.8416412324179307e-01  -2.1976241803955529e-01  -2.5236974246403499e-01  -2.8183756782363267e-01  -3.0806579715677679e-01  -3.3100346262110131e-01  -3.5064957040351202e-01  -3.6705249654828781e-01  -3.8030706406965270e-01  -3.9054903038124961e-01  -3.9794727029325194e-01  -4.0269425893310473e-01  -4.0499573999187122e-01  -4.0506055769139832e-01  -4.0309170120934523e-01  -3.9927945107230828e-01  -3.9379736720282421e-01  -3.8680148206662895e-01  -3.7843290917171413e-01  -3.6882350459552571e-01  -3.5810522181058702e-01  -3.4642029960581161e-01  -3.3394298533569550e-01  -3.2088046443631951e-01  -3.0757282483164916e-01  -2.9432071235049406e-01  -2.8217973842720762e-01  -2.7083623277554031e-01  -2.6569353664297268e-01  -2.5632831131615758e-01  -2.8074076050219421e-01  -2.1994842359784070e-01  -4.2780893932653707e-01  -3.9875930043873037e-01  -3.3651577882880013e-01  -3.0732884631398416e-01  -2.6257576670987293e-01  -2.1565041661529144e-01  -1.6467987513548990e-01  -1.1154860497211634e-01  -5.7367007658491988e-02  -3.3999012639851496e-03  4.9100421688967104e-02  9.8898423173002153e-02  1.4480430439627073e-01  1.8571112608426971e-01  2.2063777673793267e-01  2.4877269328044266e-01  2.6951296973978739e-01  2.8249407210406013e-01  2.8760640430325835e-01  2.8499645411841062e-01  2.7505177688617233e-01  2.5837086179503710e-01  2.3572051847217035e-01  2.0798499394305256e-01  1.7611198288275545e-01  1.4106107157025330e-01  1.0375951053569360e-01  6.5068852803970484e-02  2.5763990934578172e-02  -1.3475875193329497e-02  -5.2066538956803285e-02  -8.9511541463099337e-02  -1.2539181723163029e-01  -1.5935520054562402e-01  -1.9110782797715695e-01  -2.2040838749207312e-01  -2.4706513427088381e-01  -2.7093493942160418e-01  -2.9192326446233702e-01  -3.0998401561289463e-01  -3.2511840755436183e-01  -3.3737234196813709e-01  -3.4683206080908774e-01  -3.5361815518333151e-01  -3.5787815966658199e-01  -3.5977822273305426e-01  -3.5949444142495374e-01  -3.5720467230421943e-01  -3.5308166388198176e-01  -3.4728842364336449e-01  -3.3997652757677105e-01  -3.3128797553224792e-01  -3.2136049751506779e-01  -3.1033724757490011e-01  -2.9837720006760765e-01  -2.8567881125310834e-01  -2.7247531576863421e-01  -2.5914832479210764e-01  -2.4598873835246260e-01  -2.3415237951993345e-01  -2.2289782484511736e-01  -2.1841378092926567e-01  -2.0630595184400416e-01  -2.3340026894871557e-01  -1.4914721220536176e-01  -3.9875930043873037e-01  -3.6336221303688027e-01  -3.5783753858088863e-01  -3.1449331560808391e-01  -2.6947015392608487e-01  -2.2220012023540256e-01  -1.7253881710027877e-01  -1.2153180914985419e-01  -7.0041142806739690e-02  -1.9095562499712043e-02  3.0268272510679029e-02  7.7008474976457658e-02  1.2011229552183803e-01  1.5863116250747439e-01  1.9171926517348020e-01  2.1867217575966655e-01  2.3896161524005904e-01  2.5226230784367043e-01  2.5846765046438658e-01  2.5769198206108074e-01  2.5025886048450563e-01  2.3667622815371900e-01  2.1760099492846166e-01  1.9379664731248508e-01  1.6608830041780448e-01  1.3531955669183371e-01  1.0231502970384217e-01  6.7851175072277364e-02  3.2636694919539307e-02  -2.6977399711387625e-03  -3.7601865834886075e-02  -7.1602508924240998e-02  -1.0429702030892098e-01  -1.3534567027688066e-01  -1.6446465746144343e-01  -1.9142062609512331e-01  -2.1602693916950341e-01  -2.3814135132617575e-01  -2.5766450185717044e-01  -2.7453848884180060e-01  -2.8874497792983250e-01  -3.0030238981278656e-01  -3.0926204902199761e-01  -3.1570328509631163e-01  -3.1972779171238241e-01  -3.2145357336502162e-01  -3.2100905992305373e-01  -3.1852790390071506e-01  -3.1414510893498304e-01  -3.0799493972524983e-01  -3.0021103572496982e-01  -2.9092895063808472e-01  -2.8029091773370068e-01  -2.6845387163641965e-01  -2.5559661295090724e-01  -2.4194134259215702e-01  -2.2773867737043632e-01  -2.1339464153139895e-01  -1.9915706070047165e-01  -1.8626892763275477e-01  -1.7349638062616798e-01  -1.6800863493915671e-01  -1.5121817537013985e-01  -1.8012915717097649e-01  -7.1127385012785094e-02  -3.6336221303688027e-01  -3.2297796733892475e-01  -3.8217737341819341e-01  -3.2457991477439202e-01  -2.8001248094127518e-01  -2.3276405395703945e-01  -1.8458054056433154e-01  -1.3586595437852261e-01  -8.7317282255117395e-02  -3.9730358240556388e-02  6.0614194237657588e-03  4.9212195127171510e-02  8.8900961913364829e-02  1.2436362086737464e-01  1.5492526827053296e-01  1.8003032969205326e-01  1.9926825639492726e-01  2.1239244728401069e-01  2.1933035949562732e-01  2.2018370345133503e-01  2.1521851389591665e-01  2.0484609406221796e-01  1.8959666267949238e-01  1.7008835154891372e-01  1.4699443604446980e-01  1.2101171845086316e-01  9.2832459229439862e-02  6.3121614613802890e-02  3.2500216728652498e-02  1.5349250697243146e-03  -2.9266976470035479e-02  -5.9458330881240244e-02  -8.8650015502669474e-02  -1.1650737254727601e-01  -1.4274623894733149e-01  -1.6712931117056484e-01  -1.8946312684126329e-01  -2.0959567581955899e-01  -2.2741435169254648e-01  -2.4284395127912947e-01  -2.5584434789848071e-01  -2.6640766857574721e-01  -2.7455481650139474e-01  -2.8033144602385168e-01  -2.8380349916050851e-01  -2.8505265697254056e-01  -2.8417199591533510e-01  -2.8126232905533516e-01  -2.7642955909982381e-01  -2.6978348544616854e-01  -2.6143823026507268e-01  -2.5151460357370964e-01  -2.4014402574987770e-01  -2.2747541321904952e-01  -2.1368010189234804e-01  -1.9897288194902135e-01  -1.8358800002942202e-01  -1.6792372811377751e-01  -1.5215035633387536e-01  -1.3759284833305138e-01  -1.2247648680876284e-01  -1.1513275886586603e-01  -9.2562145290871700e-02  -1.2298221936373006e-01  1.0724678677658528e-02  -3.2297796733892475e-01  -2.7915850725929015e-01  -4.0742578299389298e-01  -3.3587710761885892e-01  -2.9229607761015147e-01  -2.4493148558212899e-01  -1.9786594010000136e-01  -1.5090683424743148e-01  -1.0461719817752002e-01  -5.9599425085853301e-02  -1.6520409088556509e-02  2.3935383933888651e-02  6.1099029897025862e-02  9.4346860242772571e-02  1.2312854814739442e-01  1.4699214018402013e-01  1.6560493140589658e-01  1.7876863201273116e-01  1.8642755253028692e-01  1.8866902261033902e-01  1.8571597749373298e-01  1.7791240256517976e-01  1.6570302946700438e-01  1.4960920087142085e-01  1.3020308183726434e-01  1.0808238239496759e-01  8.3847457040364767e-02  5.8082157394778407e-02  3.1339190242896976e-02  4.1301222509865067e-03  -2.3080374358235626e-02  -4.9876809160262617e-02  -7.5892661705324937e-02  -1.0080862861264780e-01  -1.2435014315058759e-01  -1.4628473722336408e-01  -1.6641955413573023e-01  -1.8459908833344488e-01  -2.0070306773582897e-01  -2.1464430765513615e-01  -2.2636636556867895e-01  -2.3584086469731497e-01  -2.4306444697406174e-01  -2.4805539945291752e-01  -2.5085009795098429e-01  -2.5149947835409331e-01  -2.5006581270194145e-01  -2.4662006808630690e-01  -2.4124014555947196e-01  -2.3401022441340455e-01  -2.2502137720071014e-01  -2.1437362779230087e-01  -2.0217911126610316e-01  -1.8856784085435324e-01  -1.7369063499959572e-01  -1.5773989692096174e-01  -1.4091709654748313e-01  -1.2359701406079565e-01  -1.0585479578868678e-01  -8.9099908062893154e-02  -7.0983797761345502e-02  -6.1142376356214369e-02  -3.1994694117057666e-02  -6.3722944592488603e-02  9.4323211126077472e-02  -2.7915850725929015e-01  -2.3358779007460054e-01  -4.3258346199453762e-01  -3.4738216391782772e-01  -3.0542736835944007e-01  -2.5808105502723860e-01  -2.1209740186798873e-01  -1.6669573352811179e-01  -1.2237789026853010e-01  -7.9594948409183811e-02  -3.8877849830043720e-02  -7.7567963161512049e-04  3.4171910075234062e-02  6.5462409225231680e-02  9.2654536696500825e-02  1.1538890480289933e-01  1.3340462223015523e-01  1.4655093827542820e-01  1.5479326285555681e-01  1.5821314667956951e-01  1.5700236654984709e-01  1.5145165771821947e-01  1.4193519521782710e-01  1.2889214978630001e-01  1.1280691265627392e-01  9.4189463475835303e-02  7.3557258048872073e-02  5.1419606278637349e-02  2.8265181657373004e-02  4.5528325183518273e-03  -1.9294450993366265e-02  -4.2892865542637514e-02  -6.5899007921867786e-02  -8.8009601922623845e-02  -1.0896031351352332e-01  -1.2852407697423313e-01  -1.4650923339806557e-01  -1.6275758729841569e-01  -1.7714242694169086e-01  -1.8956642831009163e-01  -1.9995940598309600e-01  -2.0827582514148585e-01  -2.1449210879286740e-01  -2.1860375338689114e-01  -2.2062240941949965e-01  -2.2057304281589388e-01  -2.1849141506187575e-01  -2.1442205074481788e-01  -2.0841692041999468e-01  -2.0053497258327221e-01  -1.9084263695587789e-01  -1.7941543704321483e-01  -1.6634036897767585e-01  -1.5172070632168055e-01  -1.3567726311382003e-01  -1.1836929869932163e-01  -9.9954364543223706e-02  -8.0772891317765994e-02  -6.0794888376742150e-02  -4.1514162933246473e-02  -1.9992403669660399e-02  -7.2555111610338278e-03  2.8919535104380025e-02  -4.0039822249876601e-03  1.7753041924819679e-01  -2.3358779007460054e-01  -1.8801707288991090e-01  -4.5715528776963393e-01  -3.5852299929220705e-01  -3.1876342163701232e-01  -2.7153572803520848e-01  -2.2657817289130039e-01  -1.8252616390468096e-01  -1.3987926095950320e-01  -9.8967640069646770e-02  -6.0215346924510096e-02  -2.4061379036587924e-02  9.0608114182464099e-03  3.8748219878829426e-02  6.4648582255631623e-02  8.6477526998607168e-02  1.0403198790591082e-01  1.1719946757503259e-01  1.2596272832621380e-01  1.3039978281100761e-01  1.3067927669397819e-01  1.2705178555078575e-01  1.1983776413174253e-01  1.0941320726178407e-01  9.6194112202130005e-02  8.0620912703598627e-02  6.3143849428083612e-02  4.4210089956929530e-02  2.4253071751702913e-02  3.6843065410771601e-03  -1.7112424341612184e-02  -3.7784726538954677e-02  -5.8013487659441816e-02  -7.7513436403091995e-02  -9.6032763951673206e-02  -1.1335214923139290e-01  -1.2928340698630122e-01  -1.4366791744223562e-01  -1.5637487713024886e-01  -1.6729940534261606e-01  -1.7636046934572722e-01  -1.8349865454590897e-01  -1.8867376915853895e-01  -1.9186237529942676e-01  -1.9305529862956047e-01  -1.9225528259643071e-01  -1.8947489027492753e-01  -1.8473483751441103e-01  -1.7806285782109349e-01  -1.6949324892663425e-01  -1.5906712497940501e-01  -1.4683356928917110e-01  -1.3285126933932900e-01  -1.1719249930069217e-01  -9.9943015040096311e-02  -8.1223143356052671e-02  -6.1141078440497203e-02  -3.9996461542872966e-02  -1.7651605195287304e-02  4.3211426424089750e-03  2.9442093591796711e-02  4.5278872166624518e-02  8.8604839325208143e-02  5.4558997209456776e-02  2.5826783922006907e-01  -1.8801707288991090e-01  -1.4419761281027621e-01  -4.8081657436573938e-01  -3.6899194550746445e-01  -3.3187881079043274e-01  -2.8484246014644582e-01  -2.4087946274028182e-01  -1.9802243832805957e-01  -1.5681639037758849e-01  -1.1749733919175481e-01  -8.0408265221214123e-02  -4.5899390666090993e-02  -1.4316966725067345e-02  1.4018694329463836e-02  3.8829905263177832e-02  5.9895659857842440e-02  7.7062395439593229e-02  9.0251268664702664e-02  9.9461759841046563e-02  1.0477154366091550e-01  1.0633281598078521e-01  1.0436544558163602e-01  9.9147574316533926e-02  9.1004396876405921e-02  8.0295975433873193e-02  6.7404893038462657e-02  5.2724510779273162e-02  3.6648400888109625e-02  1.9561379772678480e-02  1.8323263327910328e-03  -1.6191181922700405e-02  -3.4186556915020379e-02  -5.1858438634257750e-02  -6.8939766183728032e-02  -8.5191962316298553e-02  -1.0040447330835559e-01  -1.1439386102216478e-01  -1.2700256934781548e-01  -1.3809745443097007e-01  -1.4756810967474096e-01  -1.5532502400814069e-01  -1.6129757979247916e-01  -1.6543194621294757e-01  -1.6768890166239842e-01  -1.6804168724982088e-01  -1.6647395959941758e-01  -1.6297797422544769e-01  -1.5755308226383694e-01  -1.5020465741313677e-01  -1.4094351639626423e-01  -1.2978589111238414e-01  -1.1675409100740575e-01  -1.0187750943751868e-01  -8.5195850560189884e-02  -6.6757978447181066e-02  -4.6642993950538357e-02  -2.4908429267188819e-02  -1.8094910077740940e-03  2.2895027514565788e-02  4.7567498732691463e-02  7.6273061738160605e-02  9.5235517171852899e-02  1.4550355658905367e-01  1.1039529958202395e-01  3.3450993092969272e-01  -1.4419761281027621e-01  -1.0381336711232081e-01  -5.0326745172792586e-01  -3.7864774570409637e-01  -3.4447882914490330e-01  -2.9766330823606341e-01  -2.5465445652060004e-01  -2.1285411518565836e-01  -1.7289143892751554e-01  -1.3492785097350971e-01  -9.9245636329337472e-02  -6.6123660632906769e-02  -3.5836795966682246e-02  -8.6367327963873860e-03  1.5261172298579850e-02  3.5689182734057606e-02  5.2535675152690323e-02  6.5750816741081575e-02  7.5349299327834879e-02  8.1410149917765393e-02  8.4073775622488370e-02  8.3536559302500354e-02  8.0043461612501754e-02  7.3879194441426502e-02  6.5358578270475101e-02  5.4816705318652820e-02  4.2599459063983651e-02  2.9054855687191291e-02  1.4525521410990186e-02  -6.5749813029007307e-04  -1.6179555686209143e-02  -3.1745899435756980e-02  -4.7083994734360292e-02  -6.1944847363340258e-02  -7.6103527091440054e-02  -8.9359066736676929e-02  -1.0153389044160532e-01  -1.1247288080617167e-01  -1.2204216832510528e-01  -1.3012769568665197e-01  -1.3663359783772408e-01  -1.4148043574994912e-01  -1.4460332349878854e-01  -1.4595000566480887e-01  -1.4547894302652978e-01  -1.4315748753607715e-01  -1.3896021906241660e-01  -1.3286752702910426e-01  -1.2486450025170688e-01  -1.1494019455013420e-01  -1.0308730316072204e-01  -8.9302391272319231e-02  -7.3586348848267397e-02  -5.5946971523706875e-02  -3.6397032529897934e-02  -1.4975030928228300e-02  8.3099687417493261e-03  3.3248443015548794e-02  6.0174277088353066e-02  8.7405213274480059e-02  1.1948117123615250e-01  1.4142894791426297e-01  1.9810046263623074e-01  1.6199884685571744e-01  4.0432291912846618e-01  -1.0381336711232081e-01  -6.8416279710470734e-02  -5.2417953429639907e-01  -3.8745375210816280e-01  -3.5634758859576354e-01  -3.0974317960471431e-01  -2.6763376847442638e-01  -2.2676586925323736e-01  -1.8788058256067428e-01  -1.5107770951526817e-01  -1.1659443245772035e-01  -8.4651912742239072e-02  -5.5466255191732566e-02  -2.9231779191416847e-02  -6.1112717481889532e-03  1.3772827169803815e-02  3.0344944035726126e-02  4.3580692773638671e-02  5.3508875567273573e-02  6.0211213955796747e-02  6.3819930303003536e-02  6.4513443809977825e-02  6.2510514075675094e-02  5.8063264166828513e-02  5.1449534263250732e-02  4.2965029150525212e-02  3.2915677415644780e-02  2.1610550022